 Entering Gaussian System, Link 0=g09
 Initial command:
 /share/apps/gaussian/g09d01/nehalem/g09/l1.exe "./Gau-184603.inp" -scrdir="./"
 Entering Link 1 = /share/apps/gaussian/g09d01/nehalem/g09/l1.exe PID=    184605.
  
 Copyright (c) 1988,1990,1992,1993,1995,1998,2003,2009,2013,
            Gaussian, Inc.  All Rights Reserved.
  
 This is part of the Gaussian(R) 09 program.  It is based on
 the Gaussian(R) 03 system (copyright 2003, Gaussian, Inc.),
 the Gaussian(R) 98 system (copyright 1998, Gaussian, Inc.),
 the Gaussian(R) 94 system (copyright 1995, Gaussian, Inc.),
 the Gaussian 92(TM) system (copyright 1992, Gaussian, Inc.),
 the Gaussian 90(TM) system (copyright 1990, Gaussian, Inc.),
 the Gaussian 88(TM) system (copyright 1988, Gaussian, Inc.),
 the Gaussian 86(TM) system (copyright 1986, Carnegie Mellon
 University), and the Gaussian 82(TM) system (copyright 1983,
 Carnegie Mellon University). Gaussian is a federally registered
 trademark of Gaussian, Inc.
  
 This software contains proprietary and confidential information,
 including trade secrets, belonging to Gaussian, Inc.
  
 This software is provided under written license and may be
 used, copied, transmitted, or stored only in accord with that
 written license.
  
 The following legend is applicable only to US Government
 contracts under FAR:
  
                    RESTRICTED RIGHTS LEGEND
  
 Use, reproduction and disclosure by the US Government is
 subject to restrictions as set forth in subparagraphs (a)
 and (c) of the Commercial Computer Software - Restricted
 Rights clause in FAR 52.227-19.
  
 Gaussian, Inc.
 340 Quinnipiac St., Bldg. 40, Wallingford CT 06492
  
  
 ---------------------------------------------------------------
 Warning -- This program may not be used in any manner that
 competes with the business of Gaussian, Inc. or will provide
 assistance to any competitor of Gaussian, Inc.  The licensee
 of this program is prohibited from giving any competitor of
 Gaussian, Inc. access to this program.  By using this program,
 the user acknowledges that Gaussian, Inc. is engaged in the
 business of creating and licensing software in the field of
 computational chemistry and represents and warrants to the
 licensee that it is not a competitor of Gaussian, Inc. and that
 it will not use this program in any manner prohibited above.
 ---------------------------------------------------------------
  

 Cite this work as:
 Gaussian 09, Revision D.01,
 M. J. Frisch, G. W. Trucks, H. B. Schlegel, G. E. Scuseria, 
 M. A. Robb, J. R. Cheeseman, G. Scalmani, V. Barone, B. Mennucci, 
 G. A. Petersson, H. Nakatsuji, M. Caricato, X. Li, H. P. Hratchian, 
 A. F. Izmaylov, J. Bloino, G. Zheng, J. L. Sonnenberg, M. Hada, 
 M. Ehara, K. Toyota, R. Fukuda, J. Hasegawa, M. Ishida, T. Nakajima, 
 Y. Honda, O. Kitao, H. Nakai, T. Vreven, J. A. Montgomery, Jr., 
 J. E. Peralta, F. Ogliaro, M. Bearpark, J. J. Heyd, E. Brothers, 
 K. N. Kudin, V. N. Staroverov, T. Keith, R. Kobayashi, J. Normand, 
 K. Raghavachari, A. Rendell, J. C. Burant, S. S. Iyengar, J. Tomasi, 
 M. Cossi, N. Rega, J. M. Millam, M. Klene, J. E. Knox, J. B. Cross, 
 V. Bakken, C. Adamo, J. Jaramillo, R. Gomperts, R. E. Stratmann, 
 O. Yazyev, A. J. Austin, R. Cammi, C. Pomelli, J. W. Ochterski, 
 R. L. Martin, K. Morokuma, V. G. Zakrzewski, G. A. Voth, 
 P. Salvador, J. J. Dannenberg, S. Dapprich, A. D. Daniels, 
 O. Farkas, J. B. Foresman, J. V. Ortiz, J. Cioslowski, 
 and D. J. Fox, Gaussian, Inc., Wallingford CT, 2013.
 
 ******************************************
 Gaussian 09:  ES64L-G09RevD.01 24-Apr-2013
                 4-Feb-2022 
 ******************************************
 %mem=10gb
 %nproc=2
 Will use up to    2 processors via shared memory.
 -------------------------------
 #p cc-pvtz RHF pop=full GFPRINT
 -------------------------------
 1/38=1/1;
 2/12=2,17=6,18=5,40=1/2;
 3/5=16,6=1,11=1,16=1,24=100,25=1,30=1,116=1/1,2,3;
 4//1;
 5/5=2,38=5/2;
 6/7=3,28=1/1;
 99/5=1,9=1/99;
 Leave Link    1 at Fri Feb  4 00:59:35 2022, MaxMem=  1342177280 cpu:         0.1
 (Enter /share/apps/gaussian/g09d01/nehalem/g09/l101.exe)
 ---------
 Thiophene
 ---------
 Symbolic Z-matrix:
 Charge =  0 Multiplicity = 1
 C                     0.       -0.7114    1.2667 
 C                     0.        0.7114    1.2667 
 C                     0.        1.238     0.0096 
 C                     0.       -1.238     0.0096 
 S                     0.        0.       -1.1926 
 H                     0.       -1.3143    2.1626 
 H                     0.        1.3143    2.1626 
 H                     0.       -2.2747   -0.2803 
 H                     0.        2.2747   -0.2803 
 
 NAtoms=      9 NQM=        9 NQMF=       0 NMMI=      0 NMMIF=      0
                NMic=       0 NMicF=      0.
                    Isotopes and Nuclear Properties:
 (Nuclear quadrupole moments (NQMom) in fm**2, nuclear magnetic moments (NMagM)
  in nuclear magnetons)

  Atom         1           2           3           4           5           6           7           8           9
 IAtWgt=          12          12          12          12          32           1           1           1           1
 AtmWgt=  12.0000000  12.0000000  12.0000000  12.0000000  31.9720718   1.0078250   1.0078250   1.0078250   1.0078250
 NucSpn=           0           0           0           0           0           1           1           1           1
 AtZEff=   0.0000000   0.0000000   0.0000000   0.0000000   0.0000000   0.0000000   0.0000000   0.0000000   0.0000000
 NQMom=    0.0000000   0.0000000   0.0000000   0.0000000   0.0000000   0.0000000   0.0000000   0.0000000   0.0000000
 NMagM=    0.0000000   0.0000000   0.0000000   0.0000000   0.0000000   2.7928460   2.7928460   2.7928460   2.7928460
 AtZNuc=   6.0000000   6.0000000   6.0000000   6.0000000  16.0000000   1.0000000   1.0000000   1.0000000   1.0000000
 Leave Link  101 at Fri Feb  4 00:59:36 2022, MaxMem=  1342177280 cpu:         0.2
 (Enter /share/apps/gaussian/g09d01/nehalem/g09/l202.exe)
                          Input orientation:                          
 ---------------------------------------------------------------------
 Center     Atomic      Atomic             Coordinates (Angstroms)
 Number     Number       Type             X           Y           Z
 ---------------------------------------------------------------------
      1          6           0        0.000000   -0.711400    1.266700
      2          6           0        0.000000    0.711400    1.266700
      3          6           0        0.000000    1.238000    0.009600
      4          6           0        0.000000   -1.238000    0.009600
      5         16           0        0.000000    0.000000   -1.192600
      6          1           0        0.000000   -1.314300    2.162600
      7          1           0        0.000000    1.314300    2.162600
      8          1           0        0.000000   -2.274700   -0.280300
      9          1           0        0.000000    2.274700   -0.280300
 ---------------------------------------------------------------------
                    Distance matrix (angstroms):
                    1          2          3          4          5
     1  C    0.000000
     2  C    1.422800   0.000000
     3  C    2.319582   1.362941   0.000000
     4  C    1.362941   2.319582   2.476000   0.000000
     5  S    2.560126   2.560126   1.725668   1.725668   0.000000
     6  H    1.079873   2.214971   3.339108   2.154351   3.603436
     7  H    2.214971   1.079873   2.154351   3.339108   3.603436
     8  H    2.199344   3.363034   3.524642   1.076471   2.450826
     9  H    3.363034   2.199344   1.076471   3.524642   2.450826
                    6          7          8          9
     6  H    0.000000
     7  H    2.628600   0.000000
     8  H    2.624905   4.341506   0.000000
     9  H    4.341506   2.624905   4.549400   0.000000
 Stoichiometry    C4H4S
 Framework group  C2V[C2(S),SGV(C4H4)]
 Deg. of freedom     8
 Full point group                 C2V     NOp   4
 Largest Abelian subgroup         C2V     NOp   4
 Largest concise Abelian subgroup C2      NOp   2
                         Standard orientation:                         
 ---------------------------------------------------------------------
 Center     Atomic      Atomic             Coordinates (Angstroms)
 Number     Number       Type             X           Y           Z
 ---------------------------------------------------------------------
      1          6           0        0.000000    0.711400   -1.266732
      2          6           0        0.000000   -0.711400   -1.266732
      3          6           0        0.000000   -1.238000   -0.009632
      4          6           0        0.000000    1.238000   -0.009632
      5         16           0        0.000000    0.000000    1.192568
      6          1           0        0.000000    1.314300   -2.162632
      7          1           0        0.000000   -1.314300   -2.162632
      8          1           0        0.000000    2.274700    0.280268
      9          1           0        0.000000   -2.274700    0.280268
 ---------------------------------------------------------------------
 Rotational constants (GHZ):      8.0421979      5.4105359      3.2344802
 Leave Link  202 at Fri Feb  4 00:59:36 2022, MaxMem=  1342177280 cpu:         0.0
 (Enter /share/apps/gaussian/g09d01/nehalem/g09/l301.exe)
 Standard basis: CC-pVTZ (5D, 7F)
 Ernie: Thresh=  0.10000D-02 Tol=  0.10000D-05 Strict=F.
 Ernie:  25 primitive shells out of 196 were deleted.
 AO basis set (Overlap normalization):
 Atom C1       Shell     1 S   7     bf    1 -     1          0.000000000000          1.344351076449         -2.393776046665
      0.8236000000D+04  0.5419783203D-03
      0.1235000000D+04  0.4192873817D-02
      0.2808000000D+03  0.2152216205D-01
      0.7927000000D+02  0.8353432195D-01
      0.2559000000D+02  0.2395828457D+00
      0.8997000000D+01  0.4428528419D+00
      0.3319000000D+01  0.3517995618D+00
 Atom C1       Shell     2 S   6     bf    2 -     2          0.000000000000          1.344351076449         -2.393776046665
      0.2808000000D+03 -0.5949224937D-04
      0.7927000000D+02 -0.1148158310D-02
      0.2559000000D+02 -0.1001913745D-01
      0.8997000000D+01 -0.6121949230D-01
      0.3319000000D+01 -0.1732698541D+00
      0.3643000000D+00  0.1072915192D+01
 Atom C1       Shell     3 S   1     bf    3 -     3          0.000000000000          1.344351076449         -2.393776046665
      0.9059000000D+00  0.1000000000D+01
 Atom C1       Shell     4 S   1     bf    4 -     4          0.000000000000          1.344351076449         -2.393776046665
      0.1285000000D+00  0.1000000000D+01
 Atom C1       Shell     5 P   3     bf    5 -     7          0.000000000000          1.344351076449         -2.393776046665
      0.1871000000D+02  0.3942638716D-01
      0.4133000000D+01  0.2440889849D+00
      0.1200000000D+01  0.8154920089D+00
 Atom C1       Shell     6 P   1     bf    8 -    10          0.000000000000          1.344351076449         -2.393776046665
      0.3827000000D+00  0.1000000000D+01
 Atom C1       Shell     7 P   1     bf   11 -    13          0.000000000000          1.344351076449         -2.393776046665
      0.1209000000D+00  0.1000000000D+01
 Atom C1       Shell     8 D   1     bf   14 -    18          0.000000000000          1.344351076449         -2.393776046665
      0.1097000000D+01  0.1000000000D+01
 Atom C1       Shell     9 D   1     bf   19 -    23          0.000000000000          1.344351076449         -2.393776046665
      0.3180000000D+00  0.1000000000D+01
 Atom C1       Shell    10 F   1     bf   24 -    30          0.000000000000          1.344351076449         -2.393776046665
      0.7610000000D+00  0.1000000000D+01
 Atom C2       Shell    11 S   7     bf   31 -    31          0.000000000000         -1.344351076449         -2.393776046665
      0.8236000000D+04  0.5419783203D-03
      0.1235000000D+04  0.4192873817D-02
      0.2808000000D+03  0.2152216205D-01
      0.7927000000D+02  0.8353432195D-01
      0.2559000000D+02  0.2395828457D+00
      0.8997000000D+01  0.4428528419D+00
      0.3319000000D+01  0.3517995618D+00
 Atom C2       Shell    12 S   6     bf   32 -    32          0.000000000000         -1.344351076449         -2.393776046665
      0.2808000000D+03 -0.5949224937D-04
      0.7927000000D+02 -0.1148158310D-02
      0.2559000000D+02 -0.1001913745D-01
      0.8997000000D+01 -0.6121949230D-01
      0.3319000000D+01 -0.1732698541D+00
      0.3643000000D+00  0.1072915192D+01
 Atom C2       Shell    13 S   1     bf   33 -    33          0.000000000000         -1.344351076449         -2.393776046665
      0.9059000000D+00  0.1000000000D+01
 Atom C2       Shell    14 S   1     bf   34 -    34          0.000000000000         -1.344351076449         -2.393776046665
      0.1285000000D+00  0.1000000000D+01
 Atom C2       Shell    15 P   3     bf   35 -    37          0.000000000000         -1.344351076449         -2.393776046665
      0.1871000000D+02  0.3942638716D-01
      0.4133000000D+01  0.2440889849D+00
      0.1200000000D+01  0.8154920089D+00
 Atom C2       Shell    16 P   1     bf   38 -    40          0.000000000000         -1.344351076449         -2.393776046665
      0.3827000000D+00  0.1000000000D+01
 Atom C2       Shell    17 P   1     bf   41 -    43          0.000000000000         -1.344351076449         -2.393776046665
      0.1209000000D+00  0.1000000000D+01
 Atom C2       Shell    18 D   1     bf   44 -    48          0.000000000000         -1.344351076449         -2.393776046665
      0.1097000000D+01  0.1000000000D+01
 Atom C2       Shell    19 D   1     bf   49 -    53          0.000000000000         -1.344351076449         -2.393776046665
      0.3180000000D+00  0.1000000000D+01
 Atom C2       Shell    20 F   1     bf   54 -    60          0.000000000000         -1.344351076449         -2.393776046665
      0.7610000000D+00  0.1000000000D+01
 Atom C3       Shell    21 S   7     bf   61 -    61          0.000000000000         -2.339480782437         -0.018201495090
      0.8236000000D+04  0.5419783203D-03
      0.1235000000D+04  0.4192873817D-02
      0.2808000000D+03  0.2152216205D-01
      0.7927000000D+02  0.8353432195D-01
      0.2559000000D+02  0.2395828457D+00
      0.8997000000D+01  0.4428528419D+00
      0.3319000000D+01  0.3517995618D+00
 Atom C3       Shell    22 S   6     bf   62 -    62          0.000000000000         -2.339480782437         -0.018201495090
      0.2808000000D+03 -0.5949224937D-04
      0.7927000000D+02 -0.1148158310D-02
      0.2559000000D+02 -0.1001913745D-01
      0.8997000000D+01 -0.6121949230D-01
      0.3319000000D+01 -0.1732698541D+00
      0.3643000000D+00  0.1072915192D+01
 Atom C3       Shell    23 S   1     bf   63 -    63          0.000000000000         -2.339480782437         -0.018201495090
      0.9059000000D+00  0.1000000000D+01
 Atom C3       Shell    24 S   1     bf   64 -    64          0.000000000000         -2.339480782437         -0.018201495090
      0.1285000000D+00  0.1000000000D+01
 Atom C3       Shell    25 P   3     bf   65 -    67          0.000000000000         -2.339480782437         -0.018201495090
      0.1871000000D+02  0.3942638716D-01
      0.4133000000D+01  0.2440889849D+00
      0.1200000000D+01  0.8154920089D+00
 Atom C3       Shell    26 P   1     bf   68 -    70          0.000000000000         -2.339480782437         -0.018201495090
      0.3827000000D+00  0.1000000000D+01
 Atom C3       Shell    27 P   1     bf   71 -    73          0.000000000000         -2.339480782437         -0.018201495090
      0.1209000000D+00  0.1000000000D+01
 Atom C3       Shell    28 D   1     bf   74 -    78          0.000000000000         -2.339480782437         -0.018201495090
      0.1097000000D+01  0.1000000000D+01
 Atom C3       Shell    29 D   1     bf   79 -    83          0.000000000000         -2.339480782437         -0.018201495090
      0.3180000000D+00  0.1000000000D+01
 Atom C3       Shell    30 F   1     bf   84 -    90          0.000000000000         -2.339480782437         -0.018201495090
      0.7610000000D+00  0.1000000000D+01
 Atom C4       Shell    31 S   7     bf   91 -    91          0.000000000000          2.339480782437         -0.018201495090
      0.8236000000D+04  0.5419783203D-03
      0.1235000000D+04  0.4192873817D-02
      0.2808000000D+03  0.2152216205D-01
      0.7927000000D+02  0.8353432195D-01
      0.2559000000D+02  0.2395828457D+00
      0.8997000000D+01  0.4428528419D+00
      0.3319000000D+01  0.3517995618D+00
 Atom C4       Shell    32 S   6     bf   92 -    92          0.000000000000          2.339480782437         -0.018201495090
      0.2808000000D+03 -0.5949224937D-04
      0.7927000000D+02 -0.1148158310D-02
      0.2559000000D+02 -0.1001913745D-01
      0.8997000000D+01 -0.6121949230D-01
      0.3319000000D+01 -0.1732698541D+00
      0.3643000000D+00  0.1072915192D+01
 Atom C4       Shell    33 S   1     bf   93 -    93          0.000000000000          2.339480782437         -0.018201495090
      0.9059000000D+00  0.1000000000D+01
 Atom C4       Shell    34 S   1     bf   94 -    94          0.000000000000          2.339480782437         -0.018201495090
      0.1285000000D+00  0.1000000000D+01
 Atom C4       Shell    35 P   3     bf   95 -    97          0.000000000000          2.339480782437         -0.018201495090
      0.1871000000D+02  0.3942638716D-01
      0.4133000000D+01  0.2440889849D+00
      0.1200000000D+01  0.8154920089D+00
 Atom C4       Shell    36 P   1     bf   98 -   100          0.000000000000          2.339480782437         -0.018201495090
      0.3827000000D+00  0.1000000000D+01
 Atom C4       Shell    37 P   1     bf  101 -   103          0.000000000000          2.339480782437         -0.018201495090
      0.1209000000D+00  0.1000000000D+01
 Atom C4       Shell    38 D   1     bf  104 -   108          0.000000000000          2.339480782437         -0.018201495090
      0.1097000000D+01  0.1000000000D+01
 Atom C4       Shell    39 D   1     bf  109 -   113          0.000000000000          2.339480782437         -0.018201495090
      0.3180000000D+00  0.1000000000D+01
 Atom C4       Shell    40 F   1     bf  114 -   120          0.000000000000          2.339480782437         -0.018201495090
      0.7610000000D+00  0.1000000000D+01
 Atom S5       Shell    41 S  11     bf  121 -   121          0.000000000000          0.000000000000          2.253627091790
      0.3741000000D+06  0.5425113228D-04
      0.5605000000D+05  0.4211790315D-03
      0.1276000000D+05  0.2208660086D-02
      0.3615000000D+04  0.9199598750D-02
      0.1183000000D+04  0.3213735190D-01
      0.4288000000D+03  0.9474510879D-01
      0.1678000000D+03  0.2238325198D+00
      0.6947000000D+02  0.3748153925D+00
      0.2984000000D+02  0.3296923919D+00
      0.1272000000D+02  0.8466651172D-01
      0.5244000000D+01 -0.1203631365D-02
 Atom S5       Shell    42 S   9     bf  122 -   122          0.000000000000          0.000000000000          2.253627091790
      0.3615000000D+04 -0.6417861173D-05
      0.1183000000D+04 -0.1906784738D-03
      0.4288000000D+03 -0.1488973130D-02
      0.1678000000D+03 -0.1015373592D-01
      0.6947000000D+02 -0.4321086128D-01
      0.2984000000D+02 -0.1051992395D+00
      0.1272000000D+02  0.3204684289D-01
      0.5244000000D+01  0.5225213045D+00
      0.2219000000D+01  0.5465588535D+00
 Atom S5       Shell    43 S   8     bf  123 -   123          0.000000000000          0.000000000000          2.253627091790
      0.1183000000D+04  0.4301058736D-05
      0.1678000000D+03  0.2119665796D-03
      0.6947000000D+02  0.8527390273D-03
      0.2984000000D+02  0.4419341710D-02
      0.1272000000D+02 -0.1086181378D-02
      0.5244000000D+01 -0.7362011711D-01
      0.2219000000D+01 -0.3499851706D+00
      0.3490000000D+00  0.1160022394D+01
 Atom S5       Shell    44 S   1     bf  124 -   124          0.000000000000          0.000000000000          2.253627091790
      0.7767000000D+00  0.1000000000D+01
 Atom S5       Shell    45 S   1     bf  125 -   125          0.000000000000          0.000000000000          2.253627091790
      0.1322000000D+00  0.1000000000D+01
 Atom S5       Shell    46 P   6     bf  126 -   128          0.000000000000          0.000000000000          2.253627091790
      0.5744000000D+03  0.2495012134D-02
      0.1358000000D+03  0.1985550782D-01
      0.4319000000D+02  0.9117959218D-01
      0.1587000000D+02  0.2622309055D+00
      0.6208000000D+01  0.4468316811D+00
      0.2483000000D+01  0.3655010168D+00
 Atom S5       Shell    47 P   6     bf  129 -   131          0.000000000000          0.000000000000          2.253627091790
      0.1358000000D+03 -0.7091748681D-05
      0.4319000000D+02 -0.1065836619D-02
      0.1587000000D+02 -0.5910788532D-02
      0.6208000000D+01 -0.2268816359D-01
      0.2483000000D+01 -0.1079400613D-01
      0.3229000000D+00  0.1005933734D+01
 Atom S5       Shell    48 P   1     bf  132 -   134          0.000000000000          0.000000000000          2.253627091790
      0.8688000000D+00  0.1000000000D+01
 Atom S5       Shell    49 P   1     bf  135 -   137          0.000000000000          0.000000000000          2.253627091790
      0.1098000000D+00  0.1000000000D+01
 Atom S5       Shell    50 D   1     bf  138 -   142          0.000000000000          0.000000000000          2.253627091790
      0.2690000000D+00  0.1000000000D+01
 Atom S5       Shell    51 D   1     bf  143 -   147          0.000000000000          0.000000000000          2.253627091790
      0.8190000000D+00  0.1000000000D+01
 Atom S5       Shell    52 F   1     bf  148 -   154          0.000000000000          0.000000000000          2.253627091790
      0.5570000000D+00  0.1000000000D+01
 Atom H6       Shell    53 S   3     bf  155 -   155          0.000000000000          2.483666867479         -4.086781556836
      0.3387000000D+02  0.2549486323D-01
      0.5095000000D+01  0.1903627659D+00
      0.1159000000D+01  0.8521620222D+00
 Atom H6       Shell    54 S   1     bf  156 -   156          0.000000000000          2.483666867479         -4.086781556836
      0.3258000000D+00  0.1000000000D+01
 Atom H6       Shell    55 S   1     bf  157 -   157          0.000000000000          2.483666867479         -4.086781556836
      0.1027000000D+00  0.1000000000D+01
 Atom H6       Shell    56 P   1     bf  158 -   160          0.000000000000          2.483666867479         -4.086781556836
      0.1407000000D+01  0.1000000000D+01
 Atom H6       Shell    57 P   1     bf  161 -   163          0.000000000000          2.483666867479         -4.086781556836
      0.3880000000D+00  0.1000000000D+01
 Atom H6       Shell    58 D   1     bf  164 -   168          0.000000000000          2.483666867479         -4.086781556836
      0.1057000000D+01  0.1000000000D+01
 Atom H7       Shell    59 S   3     bf  169 -   169          0.000000000000         -2.483666867479         -4.086781556836
      0.3387000000D+02  0.2549486323D-01
      0.5095000000D+01  0.1903627659D+00
      0.1159000000D+01  0.8521620222D+00
 Atom H7       Shell    60 S   1     bf  170 -   170          0.000000000000         -2.483666867479         -4.086781556836
      0.3258000000D+00  0.1000000000D+01
 Atom H7       Shell    61 S   1     bf  171 -   171          0.000000000000         -2.483666867479         -4.086781556836
      0.1027000000D+00  0.1000000000D+01
 Atom H7       Shell    62 P   1     bf  172 -   174          0.000000000000         -2.483666867479         -4.086781556836
      0.1407000000D+01  0.1000000000D+01
 Atom H7       Shell    63 P   1     bf  175 -   177          0.000000000000         -2.483666867479         -4.086781556836
      0.3880000000D+00  0.1000000000D+01
 Atom H7       Shell    64 D   1     bf  178 -   182          0.000000000000         -2.483666867479         -4.086781556836
      0.1057000000D+01  0.1000000000D+01
 Atom H8       Shell    65 S   3     bf  183 -   183          0.000000000000          4.298559732119          0.529630073040
      0.3387000000D+02  0.2549486323D-01
      0.5095000000D+01  0.1903627659D+00
      0.1159000000D+01  0.8521620222D+00
 Atom H8       Shell    66 S   1     bf  184 -   184          0.000000000000          4.298559732119          0.529630073040
      0.3258000000D+00  0.1000000000D+01
 Atom H8       Shell    67 S   1     bf  185 -   185          0.000000000000          4.298559732119          0.529630073040
      0.1027000000D+00  0.1000000000D+01
 Atom H8       Shell    68 P   1     bf  186 -   188          0.000000000000          4.298559732119          0.529630073040
      0.1407000000D+01  0.1000000000D+01
 Atom H8       Shell    69 P   1     bf  189 -   191          0.000000000000          4.298559732119          0.529630073040
      0.3880000000D+00  0.1000000000D+01
 Atom H8       Shell    70 D   1     bf  192 -   196          0.000000000000          4.298559732119          0.529630073040
      0.1057000000D+01  0.1000000000D+01
 Atom H9       Shell    71 S   3     bf  197 -   197          0.000000000000         -4.298559732119          0.529630073040
      0.3387000000D+02  0.2549486323D-01
      0.5095000000D+01  0.1903627659D+00
      0.1159000000D+01  0.8521620222D+00
 Atom H9       Shell    72 S   1     bf  198 -   198          0.000000000000         -4.298559732119          0.529630073040
      0.3258000000D+00  0.1000000000D+01
 Atom H9       Shell    73 S   1     bf  199 -   199          0.000000000000         -4.298559732119          0.529630073040
      0.1027000000D+00  0.1000000000D+01
 Atom H9       Shell    74 P   1     bf  200 -   202          0.000000000000         -4.298559732119          0.529630073040
      0.1407000000D+01  0.1000000000D+01
 Atom H9       Shell    75 P   1     bf  203 -   205          0.000000000000         -4.298559732119          0.529630073040
      0.3880000000D+00  0.1000000000D+01
 Atom H9       Shell    76 D   1     bf  206 -   210          0.000000000000         -4.298559732119          0.529630073040
      0.1057000000D+01  0.1000000000D+01
 There are    88 symmetry adapted cartesian basis functions of A1  symmetry.
 There are    33 symmetry adapted cartesian basis functions of A2  symmetry.
 There are    39 symmetry adapted cartesian basis functions of B1  symmetry.
 There are    79 symmetry adapted cartesian basis functions of B2  symmetry.
 There are    75 symmetry adapted basis functions of A1  symmetry.
 There are    31 symmetry adapted basis functions of A2  symmetry.
 There are    36 symmetry adapted basis functions of B1  symmetry.
 There are    68 symmetry adapted basis functions of B2  symmetry.
   210 basis functions,   370 primitive gaussians,   239 cartesian basis functions
    22 alpha electrons       22 beta electrons
       nuclear repulsion energy       202.6732921406 Hartrees.
 IExCor=    0 DFT=F Ex=HF Corr=None ExCW=0 ScaHFX=  1.000000
 ScaDFX=  1.000000  1.000000  1.000000  1.000000 ScalE2=  1.000000  1.000000
 IRadAn=      0 IRanWt=     -1 IRanGd=            0 ICorTp=0 IEmpDi=  4
 NAtoms=    9 NActive=    9 NUniq=    5 SFac= 3.24D+00 NAtFMM=   60 NAOKFM=F Big=F
 Integral buffers will be    131072 words long.
 Raffenetti 1 integral format.
 Two-electron integral symmetry is turned on.
 Leave Link  301 at Fri Feb  4 00:59:36 2022, MaxMem=  1342177280 cpu:         0.1
 (Enter /share/apps/gaussian/g09d01/nehalem/g09/l302.exe)
 NPDir=0 NMtPBC=     1 NCelOv=     1 NCel=       1 NClECP=     1 NCelD=      1
         NCelK=      1 NCelE2=     1 NClLst=     1 CellRange=     0.0.
 One-electron integrals computed using PRISM.
 One-electron integral symmetry used in STVInt
 NBasis=   210 RedAO= T EigKep=  1.66D-04  NBF=    75    31    36    68
 NBsUse=   210 1.00D-06 EigRej= -1.00D+00 NBFU=    75    31    36    68
 Leave Link  302 at Fri Feb  4 00:59:36 2022, MaxMem=  1342177280 cpu:         0.3
 (Enter /share/apps/gaussian/g09d01/nehalem/g09/l303.exe)
 DipDrv:  MaxL=1.
 Leave Link  303 at Fri Feb  4 00:59:36 2022, MaxMem=  1342177280 cpu:         0.1
 (Enter /share/apps/gaussian/g09d01/nehalem/g09/l401.exe)
 ExpMin= 1.03D-01 ExpMax= 3.74D+05 ExpMxC= 1.18D+03 IAcc=2 IRadAn=         4 AccDes= 0.00D+00
 Harris functional with IExCor=  205 and IRadAn=       4 diagonalized for initial guess.
 HarFok:  IExCor=  205 AccDes= 0.00D+00 IRadAn=         4 IDoV= 1 UseB2=F ITyADJ=14
 ICtDFT=  3500011 ScaDFX=  1.000000  1.000000  1.000000  1.000000
 FoFCou: FMM=F IPFlag=           0 FMFlag=      100000 FMFlg1=           0
         NFxFlg=           0 DoJE=T BraDBF=F KetDBF=T FulRan=T
         wScrn=  0.000000 ICntrl=     500 IOpCl=  0 I1Cent=   200000004 NGrid=           0
         NMat0=    1 NMatS0=      1 NMatT0=    0 NMatD0=    1 NMtDS0=    0 NMtDT0=    0
 Petite list used in FoFCou.
 Harris En= -551.296703297858    
 JPrj=0 DoOrth=F DoCkMO=F.
 Initial guess orbital symmetries:
       Occupied  (A1) (A1) (B2) (B2) (A1) (A1) (B2) (A1) (B1) (A1)
                 (B2) (A1) (A1) (B2) (A1) (B2) (A1) (B1) (B2) (A1)
                 (A2) (B1)
       Virtual   (B1) (A2) (B2) (A1) (A1) (B2) (A1) (B2) (A1) (B2)
                 (A1) (A1) (B1) (A1) (B1) (A2) (B2) (A1) (B2) (A1)
                 (B2) (B1) (A2) (B1) (B2) (A2) (A1) (B2) (A1) (B2)
                 (A1) (B2) (B1) (A1) (B2) (B1) (A1) (A2) (B2) (A1)
                 (B2) (A1) (B2) (A2) (B1) (A1) (B1) (A1) (A2) (B2)
                 (B1) (A1) (A1) (B2) (B2) (A2) (A1) (B2) (B2) (A1)
                 (B1) (A2) (B2) (B2) (A2) (A1) (A1) (A1) (B2) (A1)
                 (B1) (B2) (A2) (A1) (B2) (B1) (A1) (B1) (A2) (B1)
                 (A1) (B2) (B2) (B1) (A1) (A2) (A1) (B2) (B1) (B2)
                 (A1) (A1) (A2) (A1) (B2) (B2) (B1) (B1) (A2) (A1)
                 (B1) (A1) (B2) (A1) (A2) (B2) (A1) (B1) (B2) (A1)
                 (B2) (A2) (A1) (B2) (B1) (A1) (B1) (B2) (A2) (A2)
                 (A1) (B1) (A1) (B2) (B1) (A2) (B2) (A1) (A2) (B1)
                 (B2) (A1) (B2) (A2) (A1) (B2) (A1) (B2) (A2) (A1)
                 (A1) (B1) (B2) (A2) (B1) (B1) (B2) (A1) (A2) (B2)
                 (B1) (A1) (B2) (B2) (A2) (A1) (A1) (B2) (A2) (B1)
                 (B2) (A1) (B2) (A1) (A1) (A2) (B1) (B2) (A2) (B2)
                 (A1) (B1) (B2) (A1) (B2) (A1) (A2) (B2) (A1) (B2)
                 (A1) (A1) (B2) (B2) (A1) (B2) (A1) (B2)
 The electronic state of the initial guess is 1-A1.
 Leave Link  401 at Fri Feb  4 00:59:36 2022, MaxMem=  1342177280 cpu:         0.5
 (Enter /share/apps/gaussian/g09d01/nehalem/g09/l502.exe)
 Closed shell SCF:
 Using DIIS extrapolation, IDIIS=  1040.
 Integral symmetry usage will be decided dynamically.
 Keep R1 ints in memory in symmetry-blocked form, NReq=308167363.
 IVT=      193535 IEndB=      193535 NGot=  1342177280 MDV=  1279443218
 LenX=  1279443218 LenY=  1279385656
 Requested convergence on RMS density matrix=1.00D-08 within 128 cycles.
 Requested convergence on MAX density matrix=1.00D-06.
 Requested convergence on             energy=1.00D-06.
 No special actions if energy rises.
 FoFCou: FMM=F IPFlag=           0 FMFlag=           0 FMFlg1=           0
         NFxFlg=           0 DoJE=F BraDBF=F KetDBF=F FulRan=T
         wScrn=  0.000000 ICntrl=     600 IOpCl=  0 I1Cent=           0 NGrid=           0
         NMat0=    1 NMatS0=  22155 NMatT0=    0 NMatD0=    1 NMtDS0=    0 NMtDT0=    0
 Petite list used in FoFCou.

 Cycle   1  Pass 1  IDiag  1:
 E= -551.010897086908    
 DIIS: error= 4.26D-02 at cycle   1 NSaved=   1.
 NSaved= 1 IEnMin= 1 EnMin= -551.010897086908     IErMin= 1 ErrMin= 4.26D-02
 ErrMax= 4.26D-02  0.00D+00 EMaxC= 1.00D-01 BMatC= 5.79D-01 BMatP= 5.79D-01
 IDIUse=3 WtCom= 5.74D-01 WtEn= 4.26D-01
 Coeff-Com:  0.100D+01
 Coeff-En:   0.100D+01
 Coeff:      0.100D+01
 Gap=     0.348 Goal=   None    Shift=    0.000
 GapD=    0.348 DampG=1.000 DampE=0.500 DampFc=0.5000 IDamp=-1.
 Damping current iteration by 5.00D-01
 RMSDP=2.89D-03 MaxDP=8.94D-02              OVMax= 2.62D-01

 Cycle   2  Pass 1  IDiag  1:
 E= -551.202647310200     Delta-E=       -0.191750223293 Rises=F Damp=T
 DIIS: error= 1.50D-02 at cycle   2 NSaved=   2.
 NSaved= 2 IEnMin= 2 EnMin= -551.202647310200     IErMin= 2 ErrMin= 1.50D-02
 ErrMax= 1.50D-02  0.00D+00 EMaxC= 1.00D-01 BMatC= 9.77D-02 BMatP= 5.79D-01
 IDIUse=3 WtCom= 8.50D-01 WtEn= 1.50D-01
 Coeff-Com: -0.417D+00 0.142D+01
 Coeff-En:   0.000D+00 0.100D+01
 Coeff:     -0.354D+00 0.135D+01
 Gap=     0.450 Goal=   None    Shift=    0.000
 RMSDP=9.33D-04 MaxDP=3.05D-02 DE=-1.92D-01 OVMax= 1.28D-01

 Cycle   3  Pass 1  IDiag  1:
 E= -551.372519530056     Delta-E=       -0.169872219856 Rises=F Damp=F
 DIIS: error= 7.77D-03 at cycle   3 NSaved=   3.
 NSaved= 3 IEnMin= 3 EnMin= -551.372519530056     IErMin= 3 ErrMin= 7.77D-03
 ErrMax= 7.77D-03  0.00D+00 EMaxC= 1.00D-01 BMatC= 4.79D-03 BMatP= 9.77D-02
 IDIUse=3 WtCom= 9.22D-01 WtEn= 7.77D-02
 Coeff-Com: -0.138D+00 0.230D+00 0.908D+00
 Coeff-En:   0.000D+00 0.000D+00 0.100D+01
 Coeff:     -0.127D+00 0.212D+00 0.915D+00
 Gap=     0.442 Goal=   None    Shift=    0.000
 RMSDP=2.87D-04 MaxDP=1.39D-02 DE=-1.70D-01 OVMax= 4.82D-02

 Cycle   4  Pass 1  IDiag  1:
 E= -551.378625766794     Delta-E=       -0.006106236738 Rises=F Damp=F
 DIIS: error= 2.35D-03 at cycle   4 NSaved=   4.
 NSaved= 4 IEnMin= 4 EnMin= -551.378625766794     IErMin= 4 ErrMin= 2.35D-03
 ErrMax= 2.35D-03  0.00D+00 EMaxC= 1.00D-01 BMatC= 3.34D-04 BMatP= 4.79D-03
 IDIUse=3 WtCom= 9.77D-01 WtEn= 2.35D-02
 Coeff-Com: -0.138D-01 0.872D-02 0.212D+00 0.793D+00
 Coeff-En:   0.000D+00 0.000D+00 0.000D+00 0.100D+01
 Coeff:     -0.135D-01 0.852D-02 0.207D+00 0.798D+00
 Gap=     0.444 Goal=   None    Shift=    0.000
 RMSDP=9.50D-05 MaxDP=2.56D-03 DE=-6.11D-03 OVMax= 9.58D-03

 Cycle   5  Pass 1  IDiag  1:
 E= -551.379201298229     Delta-E=       -0.000575531435 Rises=F Damp=F
 DIIS: error= 1.15D-03 at cycle   5 NSaved=   5.
 NSaved= 5 IEnMin= 5 EnMin= -551.379201298229     IErMin= 5 ErrMin= 1.15D-03
 ErrMax= 1.15D-03  0.00D+00 EMaxC= 1.00D-01 BMatC= 5.39D-05 BMatP= 3.34D-04
 IDIUse=3 WtCom= 9.89D-01 WtEn= 1.15D-02
 Coeff-Com:  0.220D-01-0.389D-01-0.116D+00 0.302D-01 0.110D+01
 Coeff-En:   0.000D+00 0.000D+00 0.000D+00 0.000D+00 0.100D+01
 Coeff:      0.218D-01-0.385D-01-0.115D+00 0.299D-01 0.110D+01
 Gap=     0.445 Goal=   None    Shift=    0.000
 RMSDP=7.24D-05 MaxDP=2.66D-03 DE=-5.76D-04 OVMax= 1.08D-02

 Cycle   6  Pass 1  IDiag  1:
 E= -551.379419112845     Delta-E=       -0.000217814616 Rises=F Damp=F
 DIIS: error= 5.12D-04 at cycle   6 NSaved=   6.
 NSaved= 6 IEnMin= 6 EnMin= -551.379419112845     IErMin= 6 ErrMin= 5.12D-04
 ErrMax= 5.12D-04  0.00D+00 EMaxC= 1.00D-01 BMatC= 9.13D-06 BMatP= 5.39D-05
 IDIUse=3 WtCom= 9.95D-01 WtEn= 5.12D-03
 Coeff-Com: -0.363D-03 0.253D-02-0.113D-01-0.149D+00-0.131D+00 0.129D+01
 Coeff-En:   0.000D+00 0.000D+00 0.000D+00 0.000D+00 0.000D+00 0.100D+01
 Coeff:     -0.361D-03 0.252D-02-0.112D-01-0.148D+00-0.130D+00 0.129D+01
 Gap=     0.445 Goal=   None    Shift=    0.000
 RMSDP=4.09D-05 MaxDP=1.55D-03 DE=-2.18D-04 OVMax= 6.18D-03

 Cycle   7  Pass 1  IDiag  1:
 E= -551.379473152947     Delta-E=       -0.000054040102 Rises=F Damp=F
 DIIS: error= 1.46D-04 at cycle   7 NSaved=   7.
 NSaved= 7 IEnMin= 7 EnMin= -551.379473152947     IErMin= 7 ErrMin= 1.46D-04
 ErrMax= 1.46D-04  0.00D+00 EMaxC= 1.00D-01 BMatC= 1.02D-06 BMatP= 9.13D-06
 IDIUse=3 WtCom= 9.99D-01 WtEn= 1.46D-03
 Coeff-Com: -0.279D-02 0.424D-02 0.226D-01 0.503D-01-0.958D-01-0.499D+00
 Coeff-Com:  0.152D+01
 Coeff-En:   0.000D+00 0.000D+00 0.000D+00 0.000D+00 0.000D+00 0.000D+00
 Coeff-En:   0.100D+01
 Coeff:     -0.278D-02 0.423D-02 0.226D-01 0.502D-01-0.957D-01-0.498D+00
 Coeff:      0.152D+01
 Gap=     0.445 Goal=   None    Shift=    0.000
 RMSDP=1.76D-05 MaxDP=6.91D-04 DE=-5.40D-05 OVMax= 2.54D-03

 Cycle   8  Pass 1  IDiag  1:
 E= -551.379479620985     Delta-E=       -0.000006468038 Rises=F Damp=F
 DIIS: error= 3.53D-05 at cycle   8 NSaved=   8.
 NSaved= 8 IEnMin= 8 EnMin= -551.379479620985     IErMin= 8 ErrMin= 3.53D-05
 ErrMax= 3.53D-05  0.00D+00 EMaxC= 1.00D-01 BMatC= 4.35D-08 BMatP= 1.02D-06
 IDIUse=1 WtCom= 1.00D+00 WtEn= 0.00D+00
 Coeff-Com: -0.145D-03 0.883D-04 0.244D-02 0.128D-01-0.455D-02-0.135D+00
 Coeff-Com:  0.190D+00 0.935D+00
 Coeff:     -0.145D-03 0.883D-04 0.244D-02 0.128D-01-0.455D-02-0.135D+00
 Coeff:      0.190D+00 0.935D+00
 Gap=     0.446 Goal=   None    Shift=    0.000
 RMSDP=2.56D-06 MaxDP=8.48D-05 DE=-6.47D-06 OVMax= 2.98D-04

 Cycle   9  Pass 1  IDiag  1:
 E= -551.379479759958     Delta-E=       -0.000000138973 Rises=F Damp=F
 DIIS: error= 4.13D-06 at cycle   9 NSaved=   9.
 NSaved= 9 IEnMin= 9 EnMin= -551.379479759958     IErMin= 9 ErrMin= 4.13D-06
 ErrMax= 4.13D-06  0.00D+00 EMaxC= 1.00D-01 BMatC= 2.47D-09 BMatP= 4.35D-08
 IDIUse=1 WtCom= 1.00D+00 WtEn= 0.00D+00
 Coeff-Com:  0.124D-03-0.221D-03-0.932D-03-0.131D-02 0.419D-02 0.217D-01
 Coeff-Com: -0.846D-01 0.793D-01 0.982D+00
 Coeff:      0.124D-03-0.221D-03-0.932D-03-0.131D-02 0.419D-02 0.217D-01
 Coeff:     -0.846D-01 0.793D-01 0.982D+00
 Gap=     0.446 Goal=   None    Shift=    0.000
 RMSDP=5.64D-07 MaxDP=1.77D-05 DE=-1.39D-07 OVMax= 3.29D-05

 Cycle  10  Pass 1  IDiag  1:
 E= -551.379479764995     Delta-E=       -0.000000005037 Rises=F Damp=F
 DIIS: error= 9.65D-07 at cycle  10 NSaved=  10.
 NSaved=10 IEnMin=10 EnMin= -551.379479764995     IErMin=10 ErrMin= 9.65D-07
 ErrMax= 9.65D-07  0.00D+00 EMaxC= 1.00D-01 BMatC= 1.58D-10 BMatP= 2.47D-09
 IDIUse=1 WtCom= 1.00D+00 WtEn= 0.00D+00
 Coeff-Com: -0.144D-04 0.414D-04-0.403D-04-0.353D-03-0.769D-03 0.550D-02
 Coeff-Com: -0.511D-03-0.538D-01-0.177D+00 0.123D+01
 Coeff:     -0.144D-04 0.414D-04-0.403D-04-0.353D-03-0.769D-03 0.550D-02
 Coeff:     -0.511D-03-0.538D-01-0.177D+00 0.123D+01
 Gap=     0.446 Goal=   None    Shift=    0.000
 RMSDP=1.70D-07 MaxDP=6.20D-06 DE=-5.04D-09 OVMax= 7.38D-06

 Cycle  11  Pass 1  IDiag  1:
 E= -551.379479765365     Delta-E=       -0.000000000370 Rises=F Damp=F
 DIIS: error= 2.63D-07 at cycle  11 NSaved=  11.
 NSaved=11 IEnMin=11 EnMin= -551.379479765365     IErMin=11 ErrMin= 2.63D-07
 ErrMax= 2.63D-07  0.00D+00 EMaxC= 1.00D-01 BMatC= 8.46D-12 BMatP= 1.58D-10
 IDIUse=1 WtCom= 1.00D+00 WtEn= 0.00D+00
 Coeff-Com:  0.175D-06-0.512D-05 0.438D-04 0.248D-03-0.135D-03-0.248D-02
 Coeff-Com:  0.378D-02 0.128D-01 0.208D-01-0.388D+00 0.135D+01
 Coeff:      0.175D-06-0.512D-05 0.438D-04 0.248D-03-0.135D-03-0.248D-02
 Coeff:      0.378D-02 0.128D-01 0.208D-01-0.388D+00 0.135D+01
 Gap=     0.446 Goal=   None    Shift=    0.000
 RMSDP=2.98D-08 MaxDP=8.59D-07 DE=-3.70D-10 OVMax= 2.55D-06

 Cycle  12  Pass 1  IDiag  1:
 E= -551.379479765393     Delta-E=       -0.000000000028 Rises=F Damp=F
 DIIS: error= 5.60D-08 at cycle  12 NSaved=  12.
 NSaved=12 IEnMin=12 EnMin= -551.379479765393     IErMin=12 ErrMin= 5.60D-08
 ErrMax= 5.60D-08  0.00D+00 EMaxC= 1.00D-01 BMatC= 5.19D-13 BMatP= 8.46D-12
 IDIUse=1 WtCom= 1.00D+00 WtEn= 0.00D+00
 Coeff-Com:  0.446D-06-0.360D-07-0.132D-04-0.406D-04 0.340D-04 0.554D-03
 Coeff-Com: -0.123D-02-0.128D-02 0.278D-02 0.576D-01-0.428D+00 0.137D+01
 Coeff:      0.446D-06-0.360D-07-0.132D-04-0.406D-04 0.340D-04 0.554D-03
 Coeff:     -0.123D-02-0.128D-02 0.278D-02 0.576D-01-0.428D+00 0.137D+01
 Gap=     0.446 Goal=   None    Shift=    0.000
 RMSDP=6.69D-09 MaxDP=1.49D-07 DE=-2.82D-11 OVMax= 6.99D-07

 SCF Done:  E(RHF) =  -551.379479765     A.U. after   12 cycles
            NFock= 12  Conv=0.67D-08     -V/T= 2.0004
 KE= 5.511384787462D+02 PE=-1.710028538290D+03 EE= 4.048372876372D+02
 Leave Link  502 at Fri Feb  4 00:59:45 2022, MaxMem=  1342177280 cpu:        17.4
 (Enter /share/apps/gaussian/g09d01/nehalem/g09/l601.exe)
 Copying SCF densities to generalized density rwf, IOpCl= 0 IROHF=0.

 **********************************************************************

            Population analysis using the SCF density.

 **********************************************************************

 Orbital symmetries:
       Occupied  (A1) (B2) (A1) (A1) (B2) (A1) (B2) (A1) (B1) (A1)
                 (B2) (A1) (A1) (B2) (A1) (B2) (A1) (B2) (B1) (A1)
                 (B1) (A2)
       Virtual   (B1) (A1) (B2) (A1) (B2) (A2) (B2) (A1) (A1) (B2)
                 (A1) (A1) (B1) (A1) (B1) (A2) (B2) (A1) (B2) (B2)
                 (A1) (B1) (B1) (B2) (A2) (A2) (B2) (A1) (A1) (B2)
                 (A1) (B2) (A1) (B1) (B2) (B2) (B1) (A1) (A2) (A1)
                 (B2) (A1) (B2) (A2) (B1) (A1) (B1) (A1) (A2) (B2)
                 (A1) (B1) (A1) (B2) (B2) (A2) (A1) (B2) (A1) (B2)
                 (B1) (B2) (A2) (B2) (A1) (A2) (A1) (A1) (B2) (B2)
                 (A1) (B1) (A2) (A1) (B2) (B1) (A1) (B1) (B2) (A1)
                 (A2) (B2) (B1) (A1) (B1) (A2) (B2) (A1) (B2) (B1)
                 (A1) (A1) (A1) (A2) (B2) (B2) (B1) (B1) (A2) (A1)
                 (B1) (A1) (B2) (A2) (A1) (B2) (A1) (B1) (B2) (A1)
                 (B2) (A2) (A1) (B1) (B2) (B1) (A1) (B2) (A2) (A2)
                 (A1) (B1) (A1) (B2) (B1) (A2) (A1) (B1) (B2) (A2)
                 (B2) (A1) (B2) (A2) (A1) (B2) (A1) (A2) (A1) (B2)
                 (B1) (A1) (B2) (B1) (A2) (B1) (A2) (A1) (B2) (B2)
                 (B1) (A1) (B2) (A2) (B2) (A1) (B2) (A1) (A2) (B1)
                 (B2) (B2) (A1) (A1) (A1) (A2) (B1) (A2) (B2) (B2)
                 (A1) (B1) (B2) (A1) (B2) (A1) (A2) (A1) (B2) (B2)
                 (A1) (A1) (B2) (B2) (A1) (B2) (A1) (B2)
 The electronic state is 1-A1.
 Alpha  occ. eigenvalues --  -91.98092 -11.26035 -11.26032 -11.23668 -11.23566
 Alpha  occ. eigenvalues --   -8.98186  -6.66285  -6.66231  -6.66163  -1.16902
 Alpha  occ. eigenvalues --   -0.98347  -0.98215  -0.76704  -0.74890  -0.69687
 Alpha  occ. eigenvalues --   -0.57618  -0.55085  -0.52488  -0.52146  -0.47182
 Alpha  occ. eigenvalues --   -0.34493  -0.32759
 Alpha virt. eigenvalues --    0.11797   0.15187   0.15698   0.18482   0.18760
 Alpha virt. eigenvalues --    0.20345   0.22409   0.22683   0.33618   0.33754
 Alpha virt. eigenvalues --    0.37585   0.40072   0.40860   0.44645   0.45933
 Alpha virt. eigenvalues --    0.47478   0.48200   0.50876   0.52018   0.54269
 Alpha virt. eigenvalues --    0.54639   0.56230   0.57241   0.58873   0.60303
 Alpha virt. eigenvalues --    0.60917   0.61007   0.62080   0.63050   0.65313
 Alpha virt. eigenvalues --    0.68925   0.75866   0.79204   0.79571   0.86116
 Alpha virt. eigenvalues --    0.86699   0.87667   0.88614   0.89444   0.96834
 Alpha virt. eigenvalues --    0.98080   1.01745   1.07649   1.08998   1.11740
 Alpha virt. eigenvalues --    1.14133   1.16050   1.19226   1.19688   1.23876
 Alpha virt. eigenvalues --    1.25032   1.27274   1.33065   1.33596   1.40594
 Alpha virt. eigenvalues --    1.40960   1.44741   1.45982   1.48367   1.48560
 Alpha virt. eigenvalues --    1.51780   1.54753   1.55283   1.61099   1.62467
 Alpha virt. eigenvalues --    1.64027   1.68069   1.74850   1.79554   1.85503
 Alpha virt. eigenvalues --    1.85904   1.86332   1.89769   1.96395   2.01482
 Alpha virt. eigenvalues --    2.09246   2.13559   2.17229   2.20977   2.21776
 Alpha virt. eigenvalues --    2.24850   2.25820   2.27666   2.34001   2.42447
 Alpha virt. eigenvalues --    2.45576   2.49140   2.49565   2.56065   2.57063
 Alpha virt. eigenvalues --    2.58483   2.69169   2.74239   2.74508   2.75759
 Alpha virt. eigenvalues --    2.76797   2.85275   2.87767   2.94605   2.96210
 Alpha virt. eigenvalues --    2.98214   3.01631   3.03786   3.10820   3.13534
 Alpha virt. eigenvalues --    3.14636   3.18370   3.21807   3.23130   3.26818
 Alpha virt. eigenvalues --    3.28663   3.28913   3.31131   3.32954   3.33318
 Alpha virt. eigenvalues --    3.41411   3.41567   3.43090   3.45127   3.48045
 Alpha virt. eigenvalues --    3.48816   3.49940   3.52376   3.53183   3.54338
 Alpha virt. eigenvalues --    3.54653   3.64543   3.66800   3.66959   3.69035
 Alpha virt. eigenvalues --    3.75383   3.76354   3.79079   3.82564   3.87728
 Alpha virt. eigenvalues --    3.92994   3.95399   3.96809   3.97777   3.99412
 Alpha virt. eigenvalues --    4.04402   4.09162   4.09889   4.14008   4.15536
 Alpha virt. eigenvalues --    4.18044   4.23116   4.26800   4.26834   4.27758
 Alpha virt. eigenvalues --    4.35025   4.38098   4.40195   4.50732   4.51505
 Alpha virt. eigenvalues --    4.57656   4.64725   4.65622   4.68259   4.71347
 Alpha virt. eigenvalues --    4.74793   4.79850   4.84555   4.92128   4.94042
 Alpha virt. eigenvalues --    5.00181   5.03131   5.14983   5.15620   5.26716
 Alpha virt. eigenvalues --    5.33023   5.33726   5.37019   5.39841   5.50729
 Alpha virt. eigenvalues --    5.63042   5.68085   5.89992   5.91159   6.10263
 Alpha virt. eigenvalues --    6.12041   6.23788   6.56035   6.75352  10.05420
 Alpha virt. eigenvalues --   11.96101  13.57364  14.41408
     Molecular Orbital Coefficients:
                           1         2         3         4         5
                        (A1)--O   (B2)--O   (A1)--O   (A1)--O   (B2)--O
     Eigenvalues --   -91.98092 -11.26035 -11.26032 -11.23668 -11.23566
   1 1   C  1S         -0.00001  -0.02047   0.02083   0.69159   0.69183
   2        2S         -0.00003   0.00034  -0.00056  -0.00477  -0.00488
   3        3S          0.00000  -0.00105   0.00095   0.02956   0.02919
   4        4S          0.00004   0.00306  -0.00056   0.00215   0.00551
   5        5PX         0.00000   0.00000   0.00000   0.00000   0.00000
   6        5PY         0.00000  -0.00022   0.00011  -0.00023   0.00020
   7        5PZ         0.00000  -0.00022   0.00023  -0.00019  -0.00007
   8        6PX         0.00000   0.00000   0.00000   0.00000   0.00000
   9        6PY        -0.00001   0.00185  -0.00027   0.00003  -0.00082
  10        6PZ         0.00001   0.00108  -0.00180   0.00202   0.00100
  11        7PX         0.00000   0.00000   0.00000   0.00000   0.00000
  12        7PY        -0.00001   0.00029  -0.00003   0.00003  -0.00065
  13        7PZ         0.00003   0.00133  -0.00103   0.00065   0.00140
  14        8D 0        0.00000   0.00013  -0.00016   0.00036   0.00036
  15        8D+1        0.00000   0.00000   0.00000   0.00000   0.00000
  16        8D-1        0.00000   0.00008  -0.00006  -0.00003  -0.00009
  17        8D+2        0.00000  -0.00002   0.00008  -0.00034  -0.00055
  18        8D-2        0.00000   0.00000   0.00000   0.00000   0.00000
  19        9D 0        0.00000   0.00098   0.00001   0.00017  -0.00109
  20        9D+1        0.00000   0.00000   0.00000   0.00000   0.00000
  21        9D-1        0.00000   0.00210  -0.00119   0.00112   0.00216
  22        9D+2       -0.00001   0.00030  -0.00017   0.00039  -0.00052
  23        9D-2        0.00000   0.00000   0.00000   0.00000   0.00000
  24       10F 0        0.00000   0.00009  -0.00008   0.00006   0.00014
  25       10F+1        0.00000   0.00000   0.00000   0.00000   0.00000
  26       10F-1        0.00000   0.00026  -0.00019   0.00030   0.00085
  27       10F+2        0.00000  -0.00010   0.00009   0.00001   0.00011
  28       10F-2        0.00000   0.00000   0.00000   0.00000   0.00000
  29       10F+3        0.00000   0.00000   0.00000   0.00000   0.00000
  30       10F-3        0.00000  -0.00003   0.00000  -0.00005   0.00029
  31 2   C  1S         -0.00001   0.02047   0.02083   0.69159  -0.69183
  32        2S         -0.00003  -0.00034  -0.00056  -0.00477   0.00488
  33        3S          0.00000   0.00105   0.00095   0.02956  -0.02919
  34        4S          0.00004  -0.00306  -0.00056   0.00215  -0.00551
  35        5PX         0.00000   0.00000   0.00000   0.00000   0.00000
  36        5PY         0.00000  -0.00022  -0.00011   0.00023   0.00020
  37        5PZ         0.00000   0.00022   0.00023  -0.00019   0.00007
  38        6PX         0.00000   0.00000   0.00000   0.00000   0.00000
  39        6PY         0.00001   0.00185   0.00027  -0.00003  -0.00082
  40        6PZ         0.00001  -0.00108  -0.00180   0.00202  -0.00100
  41        7PX         0.00000   0.00000   0.00000   0.00000   0.00000
  42        7PY         0.00001   0.00029   0.00003  -0.00003  -0.00065
  43        7PZ         0.00003  -0.00133  -0.00103   0.00065  -0.00140
  44        8D 0        0.00000  -0.00013  -0.00016   0.00036  -0.00036
  45        8D+1        0.00000   0.00000   0.00000   0.00000   0.00000
  46        8D-1        0.00000   0.00008   0.00006   0.00003  -0.00009
  47        8D+2        0.00000   0.00002   0.00008  -0.00034   0.00055
  48        8D-2        0.00000   0.00000   0.00000   0.00000   0.00000
  49        9D 0        0.00000  -0.00098   0.00001   0.00017   0.00109
  50        9D+1        0.00000   0.00000   0.00000   0.00000   0.00000
  51        9D-1        0.00000   0.00210   0.00119  -0.00112   0.00216
  52        9D+2       -0.00001  -0.00030  -0.00017   0.00039   0.00052
  53        9D-2        0.00000   0.00000   0.00000   0.00000   0.00000
  54       10F 0        0.00000  -0.00009  -0.00008   0.00006  -0.00014
  55       10F+1        0.00000   0.00000   0.00000   0.00000   0.00000
  56       10F-1        0.00000   0.00026   0.00019  -0.00030   0.00085
  57       10F+2        0.00000   0.00010   0.00009   0.00001  -0.00011
  58       10F-2        0.00000   0.00000   0.00000   0.00000   0.00000
  59       10F+3        0.00000   0.00000   0.00000   0.00000   0.00000
  60       10F-3        0.00000  -0.00003   0.00000   0.00005   0.00029
  61 3   C  1S          0.00000   0.69176   0.69173  -0.02123   0.02086
  62        2S         -0.00002  -0.00502  -0.00527  -0.00013   0.00016
  63        3S          0.00001   0.02938   0.02930  -0.00079   0.00070
  64        4S         -0.00005   0.00302   0.00263  -0.00030   0.00241
  65        5PX         0.00000   0.00000   0.00000   0.00000   0.00000
  66        5PY         0.00001   0.00017   0.00023   0.00007  -0.00001
  67        5PZ         0.00000   0.00064   0.00061  -0.00026   0.00023
  68        6PX         0.00000   0.00000   0.00000   0.00000   0.00000
  69        6PY        -0.00007   0.00106  -0.00029  -0.00081  -0.00037
  70        6PZ        -0.00004  -0.00309  -0.00218   0.00130  -0.00108
  71        7PX         0.00000   0.00000   0.00000   0.00000   0.00000
  72        7PY        -0.00003   0.00093  -0.00009  -0.00050   0.00047
  73        7PZ         0.00002  -0.00145  -0.00069   0.00054  -0.00118
  74        8D 0        0.00000   0.00021   0.00018  -0.00011   0.00017
  75        8D+1        0.00000   0.00000   0.00000   0.00000   0.00000
  76        8D-1       -0.00001  -0.00029  -0.00028   0.00010  -0.00010
  77        8D+2        0.00000  -0.00044  -0.00038   0.00013  -0.00005
  78        8D-2        0.00000   0.00000   0.00000   0.00000   0.00000
  79        9D 0        0.00001   0.00133   0.00095  -0.00105   0.00091
  80        9D+1        0.00000   0.00000   0.00000   0.00000   0.00000
  81        9D-1       -0.00003  -0.00012  -0.00052   0.00038   0.00007
  82        9D+2        0.00002   0.00128   0.00073  -0.00081   0.00032
  83        9D-2        0.00000   0.00000   0.00000   0.00000   0.00000
  84       10F 0        0.00000  -0.00031  -0.00023   0.00018  -0.00025
  85       10F+1        0.00000   0.00000   0.00000   0.00000   0.00000
  86       10F-1        0.00000   0.00026   0.00033  -0.00023   0.00025
  87       10F+2        0.00000  -0.00007  -0.00002  -0.00002  -0.00004
  88       10F-2        0.00000   0.00000   0.00000   0.00000   0.00000
  89       10F+3        0.00000   0.00000   0.00000   0.00000   0.00000
  90       10F-3        0.00001   0.00014   0.00018  -0.00002   0.00003
  91 4   C  1S          0.00000  -0.69176   0.69173  -0.02123  -0.02086
  92        2S         -0.00002   0.00502  -0.00527  -0.00013  -0.00016
  93        3S          0.00001  -0.02938   0.02930  -0.00079  -0.00070
  94        4S         -0.00005  -0.00302   0.00263  -0.00030  -0.00241
  95        5PX         0.00000   0.00000   0.00000   0.00000   0.00000
  96        5PY        -0.00001   0.00017  -0.00023  -0.00007  -0.00001
  97        5PZ         0.00000  -0.00064   0.00061  -0.00026  -0.00023
  98        6PX         0.00000   0.00000   0.00000   0.00000   0.00000
  99        6PY         0.00007   0.00106   0.00029   0.00081  -0.00037
 100        6PZ        -0.00004   0.00309  -0.00218   0.00130   0.00108
 101        7PX         0.00000   0.00000   0.00000   0.00000   0.00000
 102        7PY         0.00003   0.00093   0.00009   0.00050   0.00047
 103        7PZ         0.00002   0.00145  -0.00069   0.00054   0.00118
 104        8D 0        0.00000  -0.00021   0.00018  -0.00011  -0.00017
 105        8D+1        0.00000   0.00000   0.00000   0.00000   0.00000
 106        8D-1        0.00001  -0.00029   0.00028  -0.00010  -0.00010
 107        8D+2        0.00000   0.00044  -0.00038   0.00013   0.00005
 108        8D-2        0.00000   0.00000   0.00000   0.00000   0.00000
 109        9D 0        0.00001  -0.00133   0.00095  -0.00105  -0.00091
 110        9D+1        0.00000   0.00000   0.00000   0.00000   0.00000
 111        9D-1        0.00003  -0.00012   0.00052  -0.00038   0.00007
 112        9D+2        0.00002  -0.00128   0.00073  -0.00081  -0.00032
 113        9D-2        0.00000   0.00000   0.00000   0.00000   0.00000
 114       10F 0        0.00000   0.00031  -0.00023   0.00018   0.00025
 115       10F+1        0.00000   0.00000   0.00000   0.00000   0.00000
 116       10F-1        0.00000   0.00026  -0.00033   0.00023   0.00025
 117       10F+2        0.00000   0.00007  -0.00002  -0.00002   0.00004
 118       10F-2        0.00000   0.00000   0.00000   0.00000   0.00000
 119       10F+3        0.00000   0.00000   0.00000   0.00000   0.00000
 120       10F-3       -0.00001   0.00014  -0.00018   0.00002   0.00003
 121 5   S  1S          0.99924   0.00000   0.00002  -0.00001   0.00000
 122        2S          0.00326   0.00000   0.00040  -0.00013   0.00000
 123        3S          0.00038   0.00000   0.00118  -0.00041   0.00000
 124        4S         -0.00072   0.00000  -0.00063   0.00014   0.00000
 125        5S         -0.00004   0.00000   0.00154  -0.00044   0.00000
 126        6PX         0.00000   0.00000   0.00000   0.00000   0.00000
 127        6PY         0.00000   0.00005   0.00000   0.00000   0.00002
 128        6PZ        -0.00008   0.00000  -0.00002   0.00002   0.00000
 129        7PX         0.00000   0.00000   0.00000   0.00000   0.00000
 130        7PY         0.00000  -0.00090   0.00000   0.00000   0.00021
 131        7PZ        -0.00015   0.00000  -0.00189   0.00071   0.00000
 132        8PX         0.00000   0.00000   0.00000   0.00000   0.00000
 133        8PY         0.00000  -0.00007   0.00000   0.00000  -0.00006
 134        8PZ         0.00008   0.00000   0.00021  -0.00007   0.00000
 135        9PX         0.00000   0.00000   0.00000   0.00000   0.00000
 136        9PY         0.00000  -0.00048   0.00000   0.00000  -0.00031
 137        9PZ         0.00001   0.00000  -0.00052   0.00015   0.00000
 138       10D 0        0.00003   0.00000   0.00076  -0.00040   0.00000
 139       10D+1        0.00000   0.00000   0.00000   0.00000   0.00000
 140       10D-1        0.00000   0.00065   0.00000   0.00000   0.00010
 141       10D+2       -0.00002   0.00000  -0.00027  -0.00021   0.00000
 142       10D-2        0.00000   0.00000   0.00000   0.00000   0.00000
 143       11D 0        0.00000   0.00000   0.00004  -0.00008   0.00000
 144       11D+1        0.00000   0.00000   0.00000   0.00000   0.00000
 145       11D-1        0.00000   0.00027   0.00000   0.00000   0.00000
 146       11D+2       -0.00001   0.00000  -0.00011   0.00003   0.00000
 147       11D-2        0.00000   0.00000   0.00000   0.00000   0.00000
 148       12F 0        0.00000   0.00000  -0.00013   0.00009   0.00000
 149       12F+1        0.00000   0.00000   0.00000   0.00000   0.00000
 150       12F-1        0.00000  -0.00012   0.00000   0.00000  -0.00010
 151       12F+2        0.00002   0.00000   0.00008   0.00006   0.00000
 152       12F-2        0.00000   0.00000   0.00000   0.00000   0.00000
 153       12F+3        0.00000   0.00000   0.00000   0.00000   0.00000
 154       12F-3        0.00000   0.00003   0.00000   0.00000  -0.00004
 155 6   H  1S          0.00000   0.00003   0.00000   0.00013   0.00005
 156        2S          0.00001   0.00065  -0.00166   0.00180   0.00239
 157        3S          0.00001   0.00011  -0.00054  -0.00016   0.00004
 158        4PX         0.00000   0.00000   0.00000   0.00000   0.00000
 159        4PY         0.00000   0.00002   0.00000   0.00009   0.00018
 160        4PZ         0.00000  -0.00002  -0.00001  -0.00015  -0.00026
 161        5PX         0.00000   0.00000   0.00000   0.00000   0.00000
 162        5PY        -0.00001   0.00028   0.00031  -0.00019  -0.00056
 163        5PZ         0.00000   0.00035  -0.00057   0.00064   0.00057
 164        6D 0        0.00000   0.00003  -0.00001  -0.00004  -0.00014
 165        6D+1        0.00000   0.00000   0.00000   0.00000   0.00000
 166        6D-1        0.00000   0.00004   0.00001   0.00014   0.00019
 167        6D+2        0.00000   0.00006  -0.00001   0.00006   0.00001
 168        6D-2        0.00000   0.00000   0.00000   0.00000   0.00000
 169 7   H  1S          0.00000  -0.00003   0.00000   0.00013  -0.00005
 170        2S          0.00001  -0.00065  -0.00166   0.00180  -0.00239
 171        3S          0.00001  -0.00011  -0.00054  -0.00016  -0.00004
 172        4PX         0.00000   0.00000   0.00000   0.00000   0.00000
 173        4PY         0.00000   0.00002   0.00000  -0.00009   0.00018
 174        4PZ         0.00000   0.00002  -0.00001  -0.00015   0.00026
 175        5PX         0.00000   0.00000   0.00000   0.00000   0.00000
 176        5PY         0.00001   0.00028  -0.00031   0.00019  -0.00056
 177        5PZ         0.00000  -0.00035  -0.00057   0.00064  -0.00057
 178        6D 0        0.00000  -0.00003  -0.00001  -0.00004   0.00014
 179        6D+1        0.00000   0.00000   0.00000   0.00000   0.00000
 180        6D-1        0.00000   0.00004  -0.00001  -0.00014   0.00019
 181        6D+2        0.00000  -0.00006  -0.00001   0.00006  -0.00001
 182        6D-2        0.00000   0.00000   0.00000   0.00000   0.00000
 183 8   H  1S          0.00000  -0.00009   0.00012   0.00002   0.00003
 184        2S         -0.00003  -0.00263   0.00078  -0.00148  -0.00031
 185        3S         -0.00001  -0.00014  -0.00044  -0.00036  -0.00008
 186        4PX         0.00000   0.00000   0.00000   0.00000   0.00000
 187        4PY         0.00000  -0.00018   0.00020  -0.00002  -0.00006
 188        4PZ         0.00000  -0.00005   0.00009  -0.00003  -0.00002
 189        5PX         0.00000   0.00000   0.00000   0.00000   0.00000
 190        5PY         0.00001   0.00089  -0.00014   0.00049   0.00005
 191        5PZ        -0.00001   0.00027  -0.00013   0.00044   0.00002
 192        6D 0        0.00000  -0.00005   0.00007  -0.00003  -0.00003
 193        6D+1        0.00000   0.00000   0.00000   0.00000   0.00000
 194        6D-1        0.00000   0.00008  -0.00012  -0.00003   0.00001
 195        6D+2        0.00000  -0.00009   0.00014   0.00000  -0.00003
 196        6D-2        0.00000   0.00000   0.00000   0.00000   0.00000
 197 9   H  1S          0.00000   0.00009   0.00012   0.00002  -0.00003
 198        2S         -0.00003   0.00263   0.00078  -0.00148   0.00031
 199        3S         -0.00001   0.00014  -0.00044  -0.00036   0.00008
 200        4PX         0.00000   0.00000   0.00000   0.00000   0.00000
 201        4PY         0.00000  -0.00018  -0.00020   0.00002  -0.00006
 202        4PZ         0.00000   0.00005   0.00009  -0.00003   0.00002
 203        5PX         0.00000   0.00000   0.00000   0.00000   0.00000
 204        5PY        -0.00001   0.00089   0.00014  -0.00049   0.00005
 205        5PZ        -0.00001  -0.00027  -0.00013   0.00044  -0.00002
 206        6D 0        0.00000   0.00005   0.00007  -0.00003   0.00003
 207        6D+1        0.00000   0.00000   0.00000   0.00000   0.00000
 208        6D-1        0.00000   0.00008   0.00012   0.00003   0.00001
 209        6D+2        0.00000   0.00009   0.00014   0.00000   0.00003
 210        6D-2        0.00000   0.00000   0.00000   0.00000   0.00000
                           6         7         8         9        10
                        (A1)--O   (B2)--O   (A1)--O   (B1)--O   (A1)--O
     Eigenvalues --    -8.98186  -6.66285  -6.66231  -6.66163  -1.16902
   1 1   C  1S          0.00003   0.00000  -0.00004   0.00000  -0.09122
   2        2S          0.00012   0.00001  -0.00022   0.00000   0.21261
   3        3S          0.00000   0.00008  -0.00002   0.00000   0.04341
   4        4S          0.00026  -0.01352   0.00254   0.00000   0.05918
   5        5PX         0.00000   0.00000   0.00000   0.00001   0.00000
   6        5PY         0.00000  -0.00001  -0.00001   0.00000  -0.02034
   7        5PZ         0.00001   0.00003  -0.00005   0.00000   0.03688
   8        6PX         0.00000   0.00000   0.00000  -0.00001   0.00000
   9        6PY         0.00014   0.00026  -0.00031   0.00000  -0.02055
  10        6PZ        -0.00009  -0.00021   0.00052   0.00000   0.03657
  11        7PX         0.00000   0.00000   0.00000  -0.00003   0.00000
  12        7PY         0.00006   0.00482  -0.00093   0.00000  -0.00255
  13        7PZ        -0.00005  -0.00494   0.00186   0.00000   0.00334
  14        8D 0        0.00000   0.00001   0.00005   0.00000   0.00457
  15        8D+1        0.00000   0.00000   0.00000  -0.00001   0.00000
  16        8D-1        0.00002   0.00005  -0.00007   0.00000   0.00039
  17        8D+2        0.00000  -0.00002  -0.00001   0.00000  -0.00709
  18        8D-2        0.00000   0.00000   0.00000  -0.00001   0.00000
  19        9D 0       -0.00001   0.00051   0.00015   0.00000   0.00663
  20        9D+1        0.00000   0.00000   0.00000  -0.00009   0.00000
  21        9D-1       -0.00002  -0.00147  -0.00016   0.00000  -0.00267
  22        9D+2       -0.00004   0.00077   0.00013   0.00000  -0.00436
  23        9D-2        0.00000   0.00000   0.00000   0.00008   0.00000
  24       10F 0       -0.00002   0.00001   0.00008   0.00000   0.00157
  25       10F+1        0.00000   0.00000   0.00000  -0.00003   0.00000
  26       10F-1        0.00002  -0.00005  -0.00007   0.00000   0.00429
  27       10F+2        0.00000   0.00004   0.00007   0.00000  -0.00028
  28       10F-2        0.00000   0.00000   0.00000   0.00000   0.00000
  29       10F+3        0.00000   0.00000   0.00000  -0.00002   0.00000
  30       10F-3        0.00001  -0.00001  -0.00001   0.00000   0.00198
  31 2   C  1S          0.00003   0.00000  -0.00004   0.00000  -0.09122
  32        2S          0.00012  -0.00001  -0.00022   0.00000   0.21261
  33        3S          0.00000  -0.00008  -0.00002   0.00000   0.04341
  34        4S          0.00026   0.01352   0.00254   0.00000   0.05918
  35        5PX         0.00000   0.00000   0.00000   0.00001   0.00000
  36        5PY         0.00000  -0.00001   0.00001   0.00000   0.02034
  37        5PZ         0.00001  -0.00003  -0.00005   0.00000   0.03688
  38        6PX         0.00000   0.00000   0.00000  -0.00001   0.00000
  39        6PY        -0.00014   0.00026   0.00031   0.00000   0.02055
  40        6PZ        -0.00009   0.00021   0.00052   0.00000   0.03657
  41        7PX         0.00000   0.00000   0.00000  -0.00003   0.00000
  42        7PY        -0.00006   0.00482   0.00093   0.00000   0.00255
  43        7PZ        -0.00005   0.00494   0.00186   0.00000   0.00334
  44        8D 0        0.00000  -0.00001   0.00005   0.00000   0.00457
  45        8D+1        0.00000   0.00000   0.00000  -0.00001   0.00000
  46        8D-1       -0.00002   0.00005   0.00007   0.00000  -0.00039
  47        8D+2        0.00000   0.00002  -0.00001   0.00000  -0.00709
  48        8D-2        0.00000   0.00000   0.00000   0.00001   0.00000
  49        9D 0       -0.00001  -0.00051   0.00015   0.00000   0.00663
  50        9D+1        0.00000   0.00000   0.00000  -0.00009   0.00000
  51        9D-1        0.00002  -0.00147   0.00016   0.00000   0.00267
  52        9D+2       -0.00004  -0.00077   0.00013   0.00000  -0.00436
  53        9D-2        0.00000   0.00000   0.00000  -0.00008   0.00000
  54       10F 0       -0.00002  -0.00001   0.00008   0.00000   0.00157
  55       10F+1        0.00000   0.00000   0.00000  -0.00003   0.00000
  56       10F-1       -0.00002  -0.00005   0.00007   0.00000  -0.00429
  57       10F+2        0.00000  -0.00004   0.00007   0.00000  -0.00028
  58       10F-2        0.00000   0.00000   0.00000   0.00000   0.00000
  59       10F+3        0.00000   0.00000   0.00000  -0.00002   0.00000
  60       10F-3       -0.00001  -0.00001   0.00001   0.00000  -0.00198
  61 3   C  1S         -0.00015   0.00015   0.00016   0.00000  -0.08985
  62        2S          0.00039  -0.00063  -0.00038   0.00000   0.21103
  63        3S          0.00000  -0.00001   0.00005   0.00000   0.04283
  64        4S         -0.00080  -0.00875  -0.00604   0.00000   0.05065
  65        5PX         0.00000   0.00000   0.00000  -0.00002   0.00000
  66        5PY         0.00008  -0.00006  -0.00009   0.00000   0.03718
  67        5PZ         0.00011  -0.00016  -0.00015   0.00000  -0.01509
  68        6PX         0.00000   0.00000   0.00000   0.00037   0.00000
  69        6PY         0.00070  -0.00198  -0.00138   0.00000   0.04307
  70        6PZ         0.00036  -0.00058  -0.00045   0.00000  -0.00598
  71        7PX         0.00000   0.00000   0.00000  -0.00008   0.00000
  72        7PY        -0.00029  -0.00571  -0.00406   0.00000  -0.00565
  73        7PZ        -0.00009   0.00065   0.00036   0.00000  -0.00148
  74        8D 0        0.00004   0.00001  -0.00004   0.00000   0.00426
  75        8D+1        0.00000   0.00000   0.00000   0.00003   0.00000
  76        8D-1        0.00010  -0.00009  -0.00013   0.00000  -0.00145
  77        8D+2        0.00000   0.00005  -0.00006   0.00000  -0.00684
  78        8D-2        0.00000   0.00000   0.00000   0.00000   0.00000
  79        9D 0       -0.00003  -0.00179   0.00074   0.00000   0.00198
  80        9D+1        0.00000   0.00000   0.00000   0.00018   0.00000
  81        9D-1        0.00012  -0.00141   0.00000   0.00000   0.00377
  82        9D+2       -0.00004  -0.00065   0.00099   0.00000  -0.00778
  83        9D-2        0.00000   0.00000   0.00000   0.00044   0.00000
  84       10F 0        0.00003   0.00003  -0.00006   0.00000  -0.00228
  85       10F+1        0.00000   0.00000   0.00000   0.00002   0.00000
  86       10F-1       -0.00009   0.00016   0.00014   0.00000   0.00424
  87       10F+2        0.00005  -0.00006  -0.00017   0.00000  -0.00190
  88       10F-2        0.00000   0.00000   0.00000   0.00002   0.00000
  89       10F+3        0.00000   0.00000   0.00000  -0.00003   0.00000
  90       10F-3       -0.00002   0.00001   0.00003   0.00000  -0.00075
  91 4   C  1S         -0.00015  -0.00015   0.00016   0.00000  -0.08985
  92        2S          0.00039   0.00063  -0.00038   0.00000   0.21103
  93        3S          0.00000   0.00001   0.00005   0.00000   0.04283
  94        4S         -0.00080   0.00875  -0.00604   0.00000   0.05065
  95        5PX         0.00000   0.00000   0.00000  -0.00002   0.00000
  96        5PY        -0.00008  -0.00006   0.00009   0.00000  -0.03718
  97        5PZ         0.00011   0.00016  -0.00015   0.00000  -0.01509
  98        6PX         0.00000   0.00000   0.00000   0.00037   0.00000
  99        6PY        -0.00070  -0.00198   0.00138   0.00000  -0.04307
 100        6PZ         0.00036   0.00058  -0.00045   0.00000  -0.00598
 101        7PX         0.00000   0.00000   0.00000  -0.00008   0.00000
 102        7PY         0.00029  -0.00571   0.00406   0.00000   0.00565
 103        7PZ        -0.00009  -0.00065   0.00036   0.00000  -0.00148
 104        8D 0        0.00004  -0.00001  -0.00004   0.00000   0.00426
 105        8D+1        0.00000   0.00000   0.00000   0.00003   0.00000
 106        8D-1       -0.00010  -0.00009   0.00013   0.00000   0.00145
 107        8D+2        0.00000  -0.00005  -0.00006   0.00000  -0.00684
 108        8D-2        0.00000   0.00000   0.00000   0.00000   0.00000
 109        9D 0       -0.00003   0.00179   0.00074   0.00000   0.00198
 110        9D+1        0.00000   0.00000   0.00000   0.00018   0.00000
 111        9D-1       -0.00012  -0.00141   0.00000   0.00000  -0.00377
 112        9D+2       -0.00004   0.00065   0.00099   0.00000  -0.00778
 113        9D-2        0.00000   0.00000   0.00000  -0.00044   0.00000
 114       10F 0        0.00003  -0.00003  -0.00006   0.00000  -0.00228
 115       10F+1        0.00000   0.00000   0.00000   0.00002   0.00000
 116       10F-1        0.00009   0.00016  -0.00014   0.00000  -0.00424
 117       10F+2        0.00005   0.00006  -0.00017   0.00000  -0.00190
 118       10F-2        0.00000   0.00000   0.00000  -0.00002   0.00000
 119       10F+3        0.00000   0.00000   0.00000  -0.00003   0.00000
 120       10F-3        0.00002   0.00001  -0.00003   0.00000   0.00075
 121 5   S  1S         -0.27687   0.00000  -0.00148   0.00000   0.03484
 122        2S          0.98595   0.00000   0.00589   0.00000  -0.13097
 123        3S         -0.00879   0.00000  -0.00137   0.00000   0.25218
 124        4S          0.07001   0.00000  -0.00168   0.00000   0.02724
 125        5S          0.00339   0.00000   0.00920   0.00000   0.11641
 126        6PX         0.00000   0.00000   0.00000   0.97163   0.00000
 127        6PY         0.00000   0.97022   0.00000   0.00000   0.00000
 128        6PZ        -0.00426   0.00000   0.97096   0.00000   0.04383
 129        7PX         0.00000   0.00000   0.00000  -0.00553   0.00000
 130        7PY         0.00000  -0.01033   0.00000   0.00000   0.00000
 131        7PZ         0.00101   0.00000  -0.00793   0.00000  -0.07044
 132        8PX         0.00000   0.00000   0.00000   0.06083   0.00000
 133        8PY         0.00000   0.06447   0.00000   0.00000   0.00000
 134        8PZ        -0.00157   0.00000   0.06258   0.00000  -0.03212
 135        9PX         0.00000   0.00000   0.00000   0.00162   0.00000
 136        9PY         0.00000  -0.00074   0.00000   0.00000   0.00000
 137        9PZ        -0.00072   0.00000  -0.00184   0.00000  -0.01227
 138       10D 0       -0.00008   0.00000   0.00243   0.00000   0.00726
 139       10D+1        0.00000   0.00000   0.00000   0.00072   0.00000
 140       10D-1        0.00000   0.00336   0.00000   0.00000   0.00000
 141       10D+2        0.00031   0.00000  -0.00005   0.00000  -0.00564
 142       10D-2        0.00000   0.00000   0.00000   0.00000   0.00000
 143       11D 0       -0.00001   0.00000  -0.00117   0.00000   0.00952
 144       11D+1        0.00000   0.00000   0.00000  -0.00066   0.00000
 145       11D-1        0.00000  -0.00102   0.00000   0.00000   0.00000
 146       11D+2       -0.00040   0.00000   0.00001   0.00000  -0.00984
 147       11D-2        0.00000   0.00000   0.00000   0.00000   0.00000
 148       12F 0        0.00007   0.00000  -0.00035   0.00000  -0.00012
 149       12F+1        0.00000   0.00000   0.00000  -0.00008   0.00000
 150       12F-1        0.00000  -0.00021   0.00000   0.00000   0.00000
 151       12F+2        0.00004   0.00000  -0.00008   0.00000   0.00592
 152       12F-2        0.00000   0.00000   0.00000   0.00000   0.00000
 153       12F+3        0.00000   0.00000   0.00000  -0.00002   0.00000
 154       12F-3        0.00000   0.00019   0.00000   0.00000   0.00000
 155 6   H  1S          0.00001  -0.00002  -0.00002   0.00000   0.02008
 156        2S         -0.00020  -0.00112   0.00040   0.00000   0.00952
 157        3S         -0.00009  -0.00168   0.00070   0.00000  -0.00104
 158        4PX         0.00000   0.00000   0.00000   0.00000   0.00000
 159        4PY         0.00001   0.00003  -0.00001   0.00000  -0.00081
 160        4PZ         0.00000  -0.00002   0.00002   0.00000   0.00133
 161        5PX         0.00000   0.00000   0.00000  -0.00003   0.00000
 162        5PY         0.00004   0.00006  -0.00010   0.00000   0.00270
 163        5PZ        -0.00009  -0.00011   0.00007   0.00000  -0.00295
 164        6D 0        0.00000   0.00002  -0.00002   0.00000  -0.00014
 165        6D+1        0.00000   0.00000   0.00000  -0.00001   0.00000
 166        6D-1        0.00001   0.00002  -0.00002   0.00000   0.00078
 167        6D+2        0.00000  -0.00005  -0.00002   0.00000  -0.00015
 168        6D-2        0.00000   0.00000   0.00000   0.00000   0.00000
 169 7   H  1S          0.00001   0.00002  -0.00002   0.00000   0.02008
 170        2S         -0.00020   0.00112   0.00040   0.00000   0.00952
 171        3S         -0.00009   0.00168   0.00070   0.00000  -0.00104
 172        4PX         0.00000   0.00000   0.00000   0.00000   0.00000
 173        4PY        -0.00001   0.00003   0.00001   0.00000   0.00081
 174        4PZ         0.00000   0.00002   0.00002   0.00000   0.00133
 175        5PX         0.00000   0.00000   0.00000  -0.00003   0.00000
 176        5PY        -0.00004   0.00006   0.00010   0.00000  -0.00270
 177        5PZ        -0.00009   0.00011   0.00007   0.00000  -0.00295
 178        6D 0        0.00000  -0.00002  -0.00002   0.00000  -0.00014
 179        6D+1        0.00000   0.00000   0.00000  -0.00001   0.00000
 180        6D-1       -0.00001   0.00002   0.00002   0.00000  -0.00078
 181        6D+2        0.00000   0.00005  -0.00002   0.00000  -0.00015
 182        6D-2        0.00000   0.00000   0.00000   0.00000   0.00000
 183 8   H  1S          0.00001   0.00011   0.00004   0.00000   0.02095
 184        2S          0.00034   0.00231   0.00010   0.00000   0.01443
 185        3S         -0.00010   0.00149  -0.00135   0.00000  -0.00453
 186        4PX         0.00000   0.00000   0.00000  -0.00001   0.00000
 187        4PY        -0.00003  -0.00010   0.00009   0.00000  -0.00156
 188        4PZ        -0.00003  -0.00003   0.00001   0.00000  -0.00052
 189        5PX         0.00000   0.00000   0.00000   0.00010   0.00000
 190        5PY        -0.00016  -0.00047   0.00002   0.00000   0.00090
 191        5PZ        -0.00006  -0.00046  -0.00010   0.00000   0.00249
 192        6D 0       -0.00002  -0.00006   0.00005   0.00000   0.00039
 193        6D+1        0.00000   0.00000   0.00000  -0.00004   0.00000
 194        6D-1        0.00005   0.00015  -0.00001   0.00000  -0.00053
 195        6D+2       -0.00002   0.00005   0.00007   0.00000   0.00011
 196        6D-2        0.00000   0.00000   0.00000   0.00000   0.00000
 197 9   H  1S          0.00001  -0.00011   0.00004   0.00000   0.02095
 198        2S          0.00034  -0.00231   0.00010   0.00000   0.01443
 199        3S         -0.00010  -0.00149  -0.00135   0.00000  -0.00453
 200        4PX         0.00000   0.00000   0.00000  -0.00001   0.00000
 201        4PY         0.00003  -0.00010  -0.00009   0.00000   0.00156
 202        4PZ        -0.00003   0.00003   0.00001   0.00000  -0.00052
 203        5PX         0.00000   0.00000   0.00000   0.00010   0.00000
 204        5PY         0.00016  -0.00047  -0.00002   0.00000  -0.00090
 205        5PZ        -0.00006   0.00046  -0.00010   0.00000   0.00249
 206        6D 0       -0.00002   0.00006   0.00005   0.00000   0.00039
 207        6D+1        0.00000   0.00000   0.00000  -0.00004   0.00000
 208        6D-1       -0.00005   0.00015   0.00001   0.00000   0.00053
 209        6D+2       -0.00002  -0.00005   0.00007   0.00000   0.00011
 210        6D-2        0.00000   0.00000   0.00000   0.00000   0.00000
                          11        12        13        14        15
                        (B2)--O   (A1)--O   (A1)--O   (B2)--O   (A1)--O
     Eigenvalues --    -0.98347  -0.98215  -0.76704  -0.74890  -0.69687
   1 1   C  1S          0.07762   0.10085  -0.03115  -0.08218   0.01359
   2        2S         -0.18661  -0.24327   0.08121   0.20940  -0.03398
   3        3S         -0.03673  -0.04927   0.01637   0.04283  -0.00832
   4        4S         -0.11031  -0.11320   0.05750   0.15450  -0.03828
   5        5PX         0.00000   0.00000   0.00000   0.00000   0.00000
   6        5PY        -0.05178   0.03367  -0.08756   0.06188  -0.04710
   7        5PZ        -0.04341   0.01035  -0.06699  -0.02529   0.13538
   8        6PX         0.00000   0.00000   0.00000   0.00000   0.00000
   9        6PY        -0.05526   0.03188  -0.10575   0.07279  -0.05944
  10        6PZ        -0.03744   0.02107  -0.07098  -0.03294   0.16817
  11        7PX         0.00000   0.00000   0.00000   0.00000   0.00000
  12        7PY         0.00712   0.00032  -0.02297   0.01784  -0.02070
  13        7PZ        -0.01113  -0.00031  -0.01289  -0.01075   0.05348
  14        8D 0       -0.00862  -0.00039  -0.00513   0.00727   0.00155
  15        8D+1        0.00000   0.00000   0.00000   0.00000   0.00000
  16        8D-1       -0.00472  -0.00063  -0.00496  -0.00302   0.00285
  17        8D+2        0.00194   0.00913  -0.00587  -0.00233   0.00081
  18        8D-2        0.00000   0.00000   0.00000   0.00000   0.00000
  19        9D 0       -0.00829  -0.00371  -0.00306   0.01109  -0.00107
  20        9D+1        0.00000   0.00000   0.00000   0.00000   0.00000
  21        9D-1        0.00367   0.00398  -0.00413  -0.00812   0.00236
  22        9D+2        0.00694   0.01186  -0.00788  -0.00733   0.00135
  23        9D-2        0.00000   0.00000   0.00000   0.00000   0.00000
  24       10F 0       -0.00169  -0.00052   0.00154   0.00077   0.00107
  25       10F+1        0.00000   0.00000   0.00000   0.00000   0.00000
  26       10F-1       -0.00520  -0.00657   0.00077   0.00524  -0.00022
  27       10F+2       -0.00038  -0.00054   0.00197   0.00035  -0.00349
  28       10F-2        0.00000   0.00000   0.00000   0.00000   0.00000
  29       10F+3        0.00000   0.00000   0.00000   0.00000   0.00000
  30       10F-3       -0.00086  -0.00225   0.00256   0.00056   0.00141
  31 2   C  1S         -0.07762   0.10085  -0.03115   0.08218   0.01359
  32        2S          0.18661  -0.24327   0.08121  -0.20940  -0.03398
  33        3S          0.03673  -0.04927   0.01637  -0.04283  -0.00832
  34        4S          0.11031  -0.11320   0.05750  -0.15450  -0.03828
  35        5PX         0.00000   0.00000   0.00000   0.00000   0.00000
  36        5PY        -0.05178  -0.03367   0.08756   0.06188   0.04710
  37        5PZ         0.04341   0.01035  -0.06699   0.02529   0.13538
  38        6PX         0.00000   0.00000   0.00000   0.00000   0.00000
  39        6PY        -0.05526  -0.03188   0.10575   0.07279   0.05944
  40        6PZ         0.03744   0.02107  -0.07098   0.03294   0.16817
  41        7PX         0.00000   0.00000   0.00000   0.00000   0.00000
  42        7PY         0.00712  -0.00032   0.02297   0.01784   0.02070
  43        7PZ         0.01113  -0.00031  -0.01289   0.01075   0.05348
  44        8D 0        0.00862  -0.00039  -0.00513  -0.00727   0.00155
  45        8D+1        0.00000   0.00000   0.00000   0.00000   0.00000
  46        8D-1       -0.00472   0.00063   0.00496  -0.00302  -0.00285
  47        8D+2       -0.00194   0.00913  -0.00587   0.00233   0.00081
  48        8D-2        0.00000   0.00000   0.00000   0.00000   0.00000
  49        9D 0        0.00829  -0.00371  -0.00306  -0.01109  -0.00107
  50        9D+1        0.00000   0.00000   0.00000   0.00000   0.00000
  51        9D-1        0.00367  -0.00398   0.00413  -0.00812  -0.00236
  52        9D+2       -0.00694   0.01186  -0.00788   0.00733   0.00135
  53        9D-2        0.00000   0.00000   0.00000   0.00000   0.00000
  54       10F 0        0.00169  -0.00052   0.00154  -0.00077   0.00107
  55       10F+1        0.00000   0.00000   0.00000   0.00000   0.00000
  56       10F-1       -0.00520   0.00657  -0.00077   0.00524   0.00022
  57       10F+2        0.00038  -0.00054   0.00197  -0.00035  -0.00349
  58       10F-2        0.00000   0.00000   0.00000   0.00000   0.00000
  59       10F+3        0.00000   0.00000   0.00000   0.00000   0.00000
  60       10F-3       -0.00086   0.00225  -0.00256   0.00056  -0.00141
[...]
 110        9D+1        0.02598
 111        9D-1        0.02717
 112        9D+2        0.00761
 113        9D-2        0.00776
 114       10F 0        0.00171
 115       10F+1        0.00142
 116       10F-1        0.00198
 117       10F+2        0.00141
 118       10F-2        0.00121
 119       10F+3        0.00057
 120       10F-3        0.00108
 121 5   S  1S          1.99997
 122        2S          1.91666
 123        3S          1.07568
 124        4S          0.17867
 125        5S          0.59891
 126        6PX         1.95610
 127        6PY         1.94923
 128        6PZ         1.95389
 129        7PX         0.91573
 130        7PY         0.61933
 131        7PZ         0.81846
 132        8PX         0.30464
 133        8PY         0.22637
 134        8PZ         0.28095
 135        9PX         0.51610
 136        9PY         0.11726
 137        9PZ         0.32013
 138       10D 0        0.01217
 139       10D+1        0.01148
 140       10D-1        0.04690
 141       10D+2        0.01622
 142       10D-2        0.03433
 143       11D 0        0.00458
 144       11D+1        0.00374
 145       11D-1        0.03214
 146       11D+2        0.00746
 147       11D-2        0.00959
 148       12F 0        0.00191
 149       12F+1        0.00087
 150       12F-1        0.00512
 151       12F+2        0.00423
 152       12F-2        0.00457
 153       12F+3        0.00123
 154       12F-3        0.00131
 155 6   H  1S          0.26622
 156        2S          0.44457
 157        3S          0.09203
 158        4PX         0.00105
 159        4PY         0.00282
 160        4PZ         0.00511
 161        5PX         0.01014
 162        5PY         0.00494
 163        5PZ        -0.00036
 164        6D 0        0.00069
 165        6D+1        0.00042
 166        6D-1        0.00055
 167        6D+2        0.00026
 168        6D-2        0.00014
 169 7   H  1S          0.26622
 170        2S          0.44457
 171        3S          0.09203
 172        4PX         0.00105
 173        4PY         0.00282
 174        4PZ         0.00511
 175        5PX         0.01014
 176        5PY         0.00494
 177        5PZ        -0.00036
 178        6D 0        0.00069
 179        6D+1        0.00042
 180        6D-1        0.00055
 181        6D+2        0.00026
 182        6D-2        0.00014
 183 8   H  1S          0.26447
 184        2S          0.44881
 185        3S          0.07884
 186        4PX         0.00115
 187        4PY         0.00701
 188        4PZ         0.00118
 189        5PX         0.01082
 190        5PY         0.00423
 191        5PZ         0.00486
 192        6D 0        0.00035
 193        6D+1        0.00008
 194        6D-1        0.00056
 195        6D+2        0.00058
 196        6D-2        0.00049
 197 9   H  1S          0.26447
 198        2S          0.44881
 199        3S          0.07884
 200        4PX         0.00115
 201        4PY         0.00701
 202        4PZ         0.00118
 203        5PX         0.01082
 204        5PY         0.00423
 205        5PZ         0.00486
 206        6D 0        0.00035
 207        6D+1        0.00008
 208        6D-1        0.00056
 209        6D+2        0.00058
 210        6D-2        0.00049
          Condensed to atoms (all electrons):
               1          2          3          4          5          6
     1  C    4.943875   0.459043  -0.093549   0.621284  -0.097112   0.413744
     2  C    0.459043   4.943875   0.621284  -0.093549  -0.097112  -0.033479
     3  C   -0.093549   0.621284   4.971292  -0.105016   0.413184   0.003930
     4  C    0.621284  -0.093549  -0.105016   4.971292   0.413184  -0.036913
     5  S   -0.097112  -0.097112   0.413184   0.413184  15.352753   0.006332
     6  H    0.413744  -0.033479   0.003930  -0.036913   0.006332   0.478602
     7  H   -0.033479   0.413744  -0.036913   0.003930   0.006332  -0.000765
     8  H   -0.034289   0.003299   0.003375   0.414625  -0.025817  -0.002695
     9  H    0.003299  -0.034289   0.414625   0.003375  -0.025817  -0.000173
               7          8          9
     1  C   -0.033479  -0.034289   0.003299
     2  C    0.413744   0.003299  -0.034289
     3  C   -0.036913   0.003375   0.414625
     4  C    0.003930   0.414625   0.003375
     5  S    0.006332  -0.025817  -0.025817
     6  H   -0.000765  -0.002695  -0.000173
     7  H    0.478602  -0.000173  -0.002695
     8  H   -0.000173   0.465148  -0.000048
     9  H   -0.002695  -0.000048   0.465148
 Mulliken charges:
               1
     1  C   -0.182816
     2  C   -0.182816
     3  C   -0.192213
     4  C   -0.192213
     5  S    0.054073
     6  H    0.171416
     7  H    0.171416
     8  H    0.176576
     9  H    0.176576
 Sum of Mulliken charges =   0.00000
 Mulliken charges with hydrogens summed into heavy atoms:
               1
     1  C   -0.011399
     2  C   -0.011399
     3  C   -0.015637
     4  C   -0.015637
     5  S    0.054073
 Electronic spatial extent (au):  <R**2>=            400.4318
 Charge=              0.0000 electrons
 Dipole moment (field-independent basis, Debye):
    X=              0.0000    Y=              0.0000    Z=             -0.7755  Tot=              0.7755
 Quadrupole moment (field-independent basis, Debye-Ang):
   XX=            -40.9342   YY=            -31.3162   ZZ=            -35.0593
   XY=              0.0000   XZ=              0.0000   YZ=              0.0000
 Traceless Quadrupole moment (field-independent basis, Debye-Ang):
   XX=             -5.1643   YY=              4.4537   ZZ=              0.7106
   XY=              0.0000   XZ=              0.0000   YZ=              0.0000
 Octapole moment (field-independent basis, Debye-Ang**2):
  XXX=              0.0000  YYY=              0.0000  ZZZ=             -7.0892  XYY=              0.0000
  XXY=              0.0000  XXZ=              1.8628  XZZ=              0.0000  YZZ=              0.0000
  YYZ=              2.4651  XYZ=              0.0000
 Hexadecapole moment (field-independent basis, Debye-Ang**3):
 XXXX=            -51.1570 YYYY=           -193.6284 ZZZZ=           -278.4819 XXXY=              0.0000
 XXXZ=              0.0000 YYYX=              0.0000 YYYZ=              0.0000 ZZZX=              0.0000
 ZZZY=              0.0000 XXYY=            -51.5710 XXZZ=            -62.3707 YYZZ=            -76.6069
 XXYZ=              0.0000 YYXZ=              0.0000 ZZXY=              0.0000
 N-N= 2.026732921406D+02 E-N=-1.710028537989D+03  KE= 5.511384787462D+02
 Symmetry A1   KE= 3.978550116565D+02
 Symmetry A2   KE= 2.141497915834D+00
 Symmetry B1   KE= 4.034087537872D+01
 Symmetry B2   KE= 1.108010937951D+02
 Orbital energies and kinetic energies (alpha):
                                 1                 2
   1         (A1)--O         -91.980920        121.178337
   2         (B2)--O         -11.260351         16.018058
   3         (A1)--O         -11.260320         16.018241
   4         (A1)--O         -11.236685         16.010186
   5         (B2)--O         -11.235656         16.021920
   6         (A1)--O          -8.981861         18.707924
   7         (B2)--O          -6.662852         17.571237
   8         (A1)--O          -6.662312         17.590548
   9         (B1)--O          -6.661635         17.606873
  10         (A1)--O          -1.169021          1.579792
  11         (B2)--O          -0.983473          1.578329
  12         (A1)--O          -0.982148          1.910522
  13         (A1)--O          -0.767041          1.566948
  14         (B2)--O          -0.748901          1.364183
  15         (A1)--O          -0.696865          1.107575
  16         (B2)--O          -0.576180          1.289574
  17         (A1)--O          -0.550847          1.394213
  18         (B2)--O          -0.524879          1.557246
  19         (B1)--O          -0.521464          1.083198
  20         (A1)--O          -0.471816          1.863221
  21         (B1)--O          -0.344927          1.480366
  22         (A2)--O          -0.327588          1.070749
  23         (B1)--V           0.117967          1.227253
  24         (A1)--V           0.151870          0.425767
  25         (B2)--V           0.156977          0.659399
  26         (A1)--V           0.184815          0.456360
  27         (B2)--V           0.187597          0.615389
  28         (A2)--V           0.203450          1.038994
  29         (B2)--V           0.224091          0.772038
  30         (A1)--V           0.226829          1.023359
  31         (A1)--V           0.336180          0.810434
  32         (B2)--V           0.337541          0.805544
  33         (A1)--V           0.375849          0.832067
  34         (A1)--V           0.400723          0.910719
  35         (B1)--V           0.408597          0.924989
  36         (A1)--V           0.446447          1.170910
  37         (B1)--V           0.459334          0.970441
  38         (A2)--V           0.474783          0.933602
  39         (B2)--V           0.481996          1.313259
  40         (A1)--V           0.508762          1.512185
  41         (B2)--V           0.520184          0.832001
  42         (B2)--V           0.542686          1.325698
  43         (A1)--V           0.546388          1.446663
  44         (B1)--V           0.562300          1.184611
  45         (B1)--V           0.572405          1.254456
  46         (B2)--V           0.588732          1.465619
  47         (A2)--V           0.603025          1.347166
  48         (A2)--V           0.609170          1.280257
  49         (B2)--V           0.610070          1.452833
  50         (A1)--V           0.620803          1.118910
  51         (A1)--V           0.630496          1.304338
  52         (B2)--V           0.653133          0.958416
  53         (A1)--V           0.689249          1.723482
  54         (B2)--V           0.758663          1.736030
  55         (A1)--V           0.792042          1.995086
  56         (B1)--V           0.795715          1.218413
  57         (B2)--V           0.861157          1.980006
  58         (B2)--V           0.866989          1.503651
  59         (B1)--V           0.876666          1.217513
  60         (A1)--V           0.886136          1.612513
  61         (A2)--V           0.894439          1.166438
  62         (A1)--V           0.968337          1.580404
  63         (B2)--V           0.980804          1.444306
  64         (A1)--V           1.017447          1.860906
  65         (B2)--V           1.076487          2.442790
  66         (A2)--V           1.089981          1.421969
  67         (B1)--V           1.117397          1.503595
  68         (A1)--V           1.141326          1.741988
  69         (B1)--V           1.160496          1.435675
  70         (A1)--V           1.192257          2.259849
  71         (A2)--V           1.196884          1.558264
  72         (B2)--V           1.238761          1.818602
  73         (A1)--V           1.250317          1.644627
  74         (B1)--V           1.272740          1.716152
  75         (A1)--V           1.330645          2.088364
  76         (B2)--V           1.335961          1.940031
  77         (B2)--V           1.405942          2.157034
  78         (A2)--V           1.409604          1.765910
  79         (A1)--V           1.447405          2.211477
  80         (B2)--V           1.459816          2.444668
  81         (A1)--V           1.483674          2.068070
  82         (B2)--V           1.485597          2.197663
  83         (B1)--V           1.517804          1.919657
  84         (B2)--V           1.547528          2.298489
  85         (A2)--V           1.552826          1.945188
  86         (B2)--V           1.610994          2.523553
  87         (A1)--V           1.624674          2.428019
  88         (A2)--V           1.640269          2.136502
  89         (A1)--V           1.680692          2.356644
  90         (A1)--V           1.748503          3.049349
  91         (B2)--V           1.795538          3.041477
  92         (B2)--V           1.855031          3.167158
  93         (A1)--V           1.859039          3.257169
  94         (B1)--V           1.863323          3.082399
  95         (A2)--V           1.897689          3.150481
  96         (A1)--V           1.963952          3.359552
  97         (B2)--V           2.014817          2.939544
  98         (B1)--V           2.092457          2.883759
  99         (A1)--V           2.135595          3.627909
 100         (B1)--V           2.172294          3.674701
 101         (B2)--V           2.209767          3.134995
 102         (A1)--V           2.217757          3.519433
 103         (A2)--V           2.248497          3.552151
 104         (B2)--V           2.258204          3.424453
 105         (B1)--V           2.276660          6.527551
 106         (A1)--V           2.340006          4.159827
 107         (B1)--V           2.424474          5.175273
 108         (A2)--V           2.455758          4.662390
 109         (B2)--V           2.491400          3.657562
 110         (A1)--V           2.495645          3.955520
 111         (B2)--V           2.560646          4.485060
 112         (B1)--V           2.570629          4.701649
 113         (A1)--V           2.584826          3.927012
 114         (A1)--V           2.691693          4.302316
 115         (A1)--V           2.742392          5.156464
 116         (A2)--V           2.745079          4.580133
 117         (B2)--V           2.757588          4.253921
 118         (B2)--V           2.767972          5.186780
 119         (B1)--V           2.852747          3.674014
 120         (B1)--V           2.877668          3.871703
 121         (A2)--V           2.946045          3.809290
 122         (A1)--V           2.962098          4.124344
 123         (B1)--V           2.982142          3.668004
 124         (A1)--V           3.016310          4.516234
 125         (B2)--V           3.037857          4.556437
 126         (A2)--V           3.108196          3.712493
 127         (A1)--V           3.135337          4.762421
 128         (B2)--V           3.146359          4.578103
 129         (A1)--V           3.183696          4.698568
 130         (B1)--V           3.218069          4.066503
 131         (B2)--V           3.231299          4.874651
 132         (A1)--V           3.268185          4.802146
 133         (B2)--V           3.286625          4.748921
 134         (A2)--V           3.289130          4.199075
 135         (A1)--V           3.311315          4.363934
 136         (B1)--V           3.329536          4.138978
 137         (B2)--V           3.333178          4.665721
 138         (B1)--V           3.414109          4.218946
 139         (A1)--V           3.415672          4.715865
 140         (B2)--V           3.430904          4.587808
 141         (A2)--V           3.451268          4.463018
 142         (A2)--V           3.480446          4.418595
 143         (A1)--V           3.488164          5.525427
 144         (B1)--V           3.499399          4.185879
 145         (A1)--V           3.523756          5.166093
 146         (B2)--V           3.531829          4.487484
 147         (B1)--V           3.543382          4.348677
 148         (A2)--V           3.546529          4.153243
 149         (A1)--V           3.645434          5.015446
 150         (B1)--V           3.668004          4.365091
 151         (B2)--V           3.669586          4.726586
 152         (A2)--V           3.690354          4.425323
 153         (B2)--V           3.753828          5.195584
 154         (A1)--V           3.763536          5.245849
 155         (B2)--V           3.790787          5.154149
 156         (A2)--V           3.825643          4.542261
 157         (A1)--V           3.877283          5.348270
 158         (B2)--V           3.929937          4.957455
 159         (A1)--V           3.953990          4.768521
 160         (A2)--V           3.968087          4.450907
 161         (A1)--V           3.977775          4.687590
 162         (B2)--V           3.994121          5.085951
 163         (B1)--V           4.044023          4.610368
 164         (A1)--V           4.091618          5.530162
 165         (B2)--V           4.098893          4.948863
 166         (B1)--V           4.140076          4.655438
 167         (A2)--V           4.155361          4.734376
 168         (B1)--V           4.180443          4.800763
 169         (A2)--V           4.231158          4.729443
 170         (A1)--V           4.268000          5.195996
 171         (B2)--V           4.268338          5.870598
 172         (B2)--V           4.277584          5.686518
 173         (B1)--V           4.350248          4.858454
 174         (A1)--V           4.380979          5.451105
 175         (B2)--V           4.401949          5.162234
 176         (A2)--V           4.507324          4.994568
 177         (B2)--V           4.515046          5.767985
 178         (A1)--V           4.576557          5.673595
 179         (B2)--V           4.647249          6.080706
 180         (A1)--V           4.656220          6.792614
 181         (A2)--V           4.682591          5.567656
 182         (B1)--V           4.713472          5.556261
 183         (B2)--V           4.747927          6.610700
 184         (B2)--V           4.798505          5.985817
 185         (A1)--V           4.845550          6.179317
 186         (A1)--V           4.921275          7.033853
 187         (A1)--V           4.940424          6.776231
 188         (A2)--V           5.001807          5.823715
 189         (B1)--V           5.031309          5.676123
 190         (A2)--V           5.149830          5.819314
 191         (B2)--V           5.156196          5.819536
 192         (B2)--V           5.267164          7.486952
 193         (A1)--V           5.330227          6.793309
 194         (B1)--V           5.337259          5.949515
 195         (B2)--V           5.370185          6.450725
 196         (A1)--V           5.398409          6.962434
 197         (B2)--V           5.507293          6.924540
 198         (A1)--V           5.630416          6.731114
 199         (A2)--V           5.680848          6.289187
 200         (A1)--V           5.899925         10.264203
 201         (B2)--V           5.911586          7.310405
 202         (B2)--V           6.102626          7.398286
 203         (A1)--V           6.120411          8.255194
 204         (A1)--V           6.237884          7.890047
 205         (B2)--V           6.560349          7.611722
 206         (B2)--V           6.753516          8.374524
 207         (A1)--V          10.054201         22.864107
 208         (B2)--V          11.961009         27.853139
 209         (A1)--V          13.573635         31.609545
 210         (B2)--V          14.414080         33.532311
 Total kinetic energy from orbitals= 5.511384787462D+02
 No NMR shielding tensors so no spin-rotation constants.
 Leave Link  601 at Fri Feb  4 00:59:46 2022, MaxMem=  1342177280 cpu:         0.8
 (Enter /share/apps/gaussian/g09d01/nehalem/g09/l9999.exe)
 1\1\GINC-LCPQ-CURIE\SP\RHF\CC-pVTZ\C4H4S1\SCEMAMA\04-Feb-2022\0\\#p cc
 -pvtz RHF pop=full GFPRINT\\Thiophene\\0,1\C,0,0.,-0.71139995,1.266699
 91\C,0,0.,0.71139995,1.26669991\C,0,0.,1.23799991,0.0096\C,0,0.,-1.237
 99991,0.0096\S,0,0.,0.,-1.19259991\H,0,0.,-1.3142999,2.16259984\H,0,0.
 ,1.3142999,2.16259984\H,0,0.,-2.27469984,-0.28029998\H,0,0.,2.27469984
 ,-0.28029998\\Version=ES64L-G09RevD.01\State=1-A1\HF=-551.3794798\RMSD
 =6.693e-09\Dipole=0.,0.,0.3050956\Quadrupole=-3.839508,3.3112117,0.528
 2963,0.,0.,0.\PG=C02V [C2(S1),SGV(C4H4)]\\@


 OLD AGE AND TREACHERY WILL ALWAYS PREVAIL OVER YOUTH AND SKILL.
 Job cpu time:       0 days  0 hours  0 minutes 19.6 seconds.
 File lengths (MBytes):  RWF=     18 Int=      0 D2E=      0 Chk=      3 Scr=      1
 Normal termination of Gaussian 09 at Fri Feb  4 00:59:46 2022.
